/*--------------------------------*- C++ -*----------------------------------*\
| =========                 |                                                 |
| \\      /  F ield         | OpenFOAM Extend Project: Open source CFD        |
|  \\    /   O peration     | Version:  1.6-ext                               |
|   \\  /    A nd           | Web:      www.extend-project.de                 |
|    \\/     M anipulation  |                                                 |
\*---------------------------------------------------------------------------*/
FoamFile
{
    version     2.0;
    format      ascii;
    class       vectorField;
    location    "0.65";
    object      accumulatedFluidInterfaceDisplacement;
}
// * * * * * * * * * * * * * * * * * * * * * * * * * * * * * * * * * * * * * //


338
(
(-1.47658e-06 -4.9184e-07 5.68955e-27)
(-1.28458e-06 -8.72431e-07 -5.04661e-27)
(-5.25244e-06 2.27114e-05 6.59681e-27)
(-5.09049e-06 2.22374e-05 -1.007e-26)
(-5.07275e-06 2.16e-05 -7.3072e-27)
(-5.05733e-06 2.09532e-05 1.50705e-26)
(-5.04482e-06 2.03051e-05 2.10843e-26)
(-5.0338e-06 1.96603e-05 1.15045e-26)
(-5.02305e-06 1.90215e-05 3.76022e-27)
(-5.01139e-06 1.83903e-05 1.76629e-27)
(-4.99796e-06 1.77674e-05 -1.52737e-26)
(-4.98211e-06 1.71531e-05 -1.82822e-26)
(-4.96344e-06 1.65473e-05 -1.67961e-26)
(-4.94173e-06 1.59499e-05 -9.7682e-27)
(-4.91692e-06 1.53605e-05 4.98979e-27)
(-4.88901e-06 1.4779e-05 1.91923e-27)
(-4.8581e-06 1.42052e-05 -6.62198e-27)
(-4.8243e-06 1.36392e-05 -5.2296e-27)
(-4.78773e-06 1.30808e-05 -2.032e-27)
(-4.74853e-06 1.25301e-05 9.89501e-27)
(-4.70683e-06 1.19872e-05 1.12914e-26)
(-4.66274e-06 1.14524e-05 -6.28182e-27)
(-4.61637e-06 1.09258e-05 -5.82365e-27)
(-4.5678e-06 1.04076e-05 1.03525e-26)
(-4.51711e-06 9.89813e-06 5.69641e-27)
(-4.46438e-06 9.39765e-06 -7.62559e-27)
(-4.40965e-06 8.90645e-06 -2.98421e-27)
(-4.35297e-06 8.42481e-06 4.21125e-27)
(-4.29438e-06 7.95303e-06 2.17702e-27)
(-4.23391e-06 7.4914e-06 -8.71036e-27)
(-4.17158e-06 7.04021e-06 -9.31658e-27)
(-4.1074e-06 6.59973e-06 -3.86615e-28)
(-4.04141e-06 6.17024e-06 -4.54974e-27)
(-3.9736e-06 5.75199e-06 4.40119e-27)
(-3.90398e-06 5.34524e-06 -3.75309e-27)
(-3.83257e-06 4.9502e-06 -6.21606e-27)
(-3.75937e-06 4.56711e-06 3.01586e-27)
(-3.6844e-06 4.19617e-06 -1.76324e-27)
(-3.60765e-06 3.83757e-06 -2.49952e-28)
(-3.52915e-06 3.49148e-06 -8.08572e-27)
(-3.4489e-06 3.15807e-06 -1.80938e-27)
(-3.36692e-06 2.83748e-06 3.38448e-27)
(-3.28324e-06 2.52984e-06 5.24825e-27)
(-3.19786e-06 2.23528e-06 4.69807e-27)
(-3.1108e-06 1.9539e-06 -6.16237e-28)
(-3.02209e-06 1.68578e-06 -1.36266e-28)
(-2.93175e-06 1.43099e-06 1.58571e-27)
(-2.83978e-06 1.18959e-06 -2.54703e-27)
(-2.74621e-06 9.61589e-07 -5.84649e-27)
(-2.65104e-06 7.47009e-07 2.27191e-27)
(-2.55429e-06 5.45821e-07 1.58343e-27)
(-2.45596e-06 3.57974e-07 2.3108e-28)
(-2.35605e-06 1.8338e-07 3.24478e-27)
(-2.25457e-06 2.19147e-08 -3.29583e-27)
(-2.15153e-06 -1.26583e-07 -1.86487e-27)
(-2.04694e-06 -2.62311e-07 -3.38902e-27)
(-1.94085e-06 -3.85504e-07 -3.79391e-27)
(-1.83333e-06 -4.96417e-07 5.64027e-27)
(-1.72449e-06 -5.95311e-07 1.24764e-27)
(-1.61452e-06 -6.82421e-07 -3.0798e-27)
(-1.50368e-06 -7.57912e-07 1.53972e-27)
(-1.39233e-06 -8.21814e-07 2.28356e-27)
(-6.29132e-06 2.28871e-05 -7.27043e-27)
(-5.7021e-06 2.28778e-05 -4.49098e-27)
(-7.33045e-06 2.27267e-05 -2.04751e-28)
(-6.88004e-06 2.2886e-05 -1.66104e-27)
(-1.63256e-06 -4.43086e-07 1.91203e-27)
(-1.79241e-06 -3.81276e-07 -2.44336e-27)
(-1.95116e-06 -3.08052e-07 -6.50586e-27)
(-2.10906e-06 -2.23385e-07 8.64e-28)
(-2.26623e-06 -1.27112e-07 3.71036e-27)
(-2.42274e-06 -1.89965e-08 -9.68255e-27)
(-2.57855e-06 1.01221e-07 -6.50229e-27)
(-2.73362e-06 2.33796e-07 1.3263e-26)
(-2.88784e-06 3.78961e-07 1.15931e-26)
(-3.04112e-06 5.36917e-07 -1.58105e-27)
(-3.19332e-06 7.07826e-07 3.3768e-27)
(-3.34432e-06 8.91813e-07 -1.61143e-27)
(-3.49399e-06 1.08897e-06 -4.49023e-27)
(-3.64221e-06 1.29934e-06 -3.8801e-27)
(-3.78887e-06 1.52297e-06 1.73335e-27)
(-3.93385e-06 1.75984e-06 2.98498e-27)
(-4.07704e-06 2.00994e-06 -1.39016e-27)
(-4.21834e-06 2.27321e-06 2.03783e-27)
(-4.35766e-06 2.54961e-06 -2.7215e-27)
(-4.4949e-06 2.83904e-06 -1.121e-27)
(-4.62998e-06 3.14141e-06 -6.96145e-28)
(-4.76282e-06 3.45661e-06 -1.31107e-27)
(-4.89333e-06 3.78452e-06 2.76901e-27)
(-5.02143e-06 4.125e-06 1.35929e-27)
(-5.14705e-06 4.4779e-06 9.696e-27)
(-5.27011e-06 4.84304e-06 3.50342e-27)
(-5.39055e-06 5.22024e-06 -9.67519e-28)
(-5.50829e-06 5.6093e-06 1.46595e-26)
(-5.62326e-06 6.01001e-06 7.19752e-27)
(-5.7354e-06 6.42214e-06 9.19209e-27)
(-5.84464e-06 6.84544e-06 9.57838e-27)
(-5.95092e-06 7.27965e-06 4.28355e-27)
(-6.05419e-06 7.7245e-06 6.08651e-27)
(-6.15438e-06 8.17971e-06 2.43107e-27)
(-6.25144e-06 8.64499e-06 -2.37092e-28)
(-6.34533e-06 9.12004e-06 -1.10132e-27)
(-6.43599e-06 9.60457e-06 -1.37601e-26)
(-6.5234e-06 1.00983e-05 -9.71409e-27)
(-6.60753e-06 1.06008e-05 8.13277e-27)
(-6.68834e-06 1.1112e-05 8.95489e-27)
(-6.76582e-06 1.16315e-05 -3.66563e-27)
(-6.83997e-06 1.21591e-05 -1.07407e-26)
(-6.91078e-06 1.26945e-05 3.26251e-27)
(-6.97828e-06 1.32377e-05 3.09332e-27)
(-7.04248e-06 1.37884e-05 -1.73401e-28)
(-7.10339e-06 1.43466e-05 -1.3516e-27)
(-7.16105e-06 1.49123e-05 -7.58046e-27)
(-7.21544e-06 1.54855e-05 2.61469e-27)
(-7.26651e-06 1.60665e-05 2.10735e-27)
(-7.31416e-06 1.66554e-05 -1.78163e-27)
(-7.35819e-06 1.72524e-05 1.2457e-26)
(-7.39821e-06 1.78577e-05 2.37057e-27)
(-7.43369e-06 1.84714e-05 -1.28026e-26)
(-7.46381e-06 1.90931e-05 4.77685e-27)
(-7.48749e-06 1.97222e-05 2.28235e-27)
(-7.50342e-06 2.0357e-05 -6.67348e-27)
(-7.51019e-06 2.09948e-05 9.63499e-27)
(-7.50655e-06 2.16312e-05 7.38808e-27)
(-7.49328e-06 2.22593e-05 3.56012e-28)
(5.35123e-08 -7.42239e-09 -1.31863e-26)
(5.23358e-08 -1.85377e-08 -8.61934e-27)
(4.75597e-08 -4.31369e-08 -4.46045e-27)
(3.72329e-08 -7.28407e-08 -1.4264e-26)
(2.02188e-08 -1.07396e-07 1.36286e-26)
(-3.91019e-09 -1.45821e-07 1.5444e-26)
(-3.52137e-08 -1.87235e-07 -1.77653e-26)
(-7.37455e-08 -2.30634e-07 2.26491e-26)
(-1.19486e-07 -2.7502e-07 -6.91342e-27)
(-1.72391e-07 -3.19379e-07 -2.9886e-26)
(-2.32372e-07 -3.62714e-07 2.07724e-26)
(-2.99318e-07 -4.04057e-07 3.49385e-27)
(-3.73097e-07 -4.42482e-07 -6.47497e-27)
(-4.53568e-07 -4.77112e-07 7.34967e-29)
(-5.40596e-07 -5.07125e-07 -8.34667e-27)
(-6.34071e-07 -5.31755e-07 2.41649e-27)
(-7.33922e-07 -5.50281e-07 1.22826e-26)
(-8.40146e-07 -5.62014e-07 -1.11592e-27)
(-9.52826e-07 -5.66272e-07 -4.63894e-27)
(-1.07215e-06 -5.62342e-07 1.43108e-27)
(-1.19844e-06 -5.49425e-07 -3.84312e-28)
(-1.33214e-06 -5.26571e-07 1.74599e-27)
(-2.92056e-07 -1.38772e-07 -4.23133e-26)
(-1.18625e-06 -9.08736e-07 2.55163e-27)
(-1.09709e-06 -9.32924e-07 4.35019e-28)
(-1.01491e-06 -9.47014e-07 -1.17813e-26)
(-9.39351e-07 -9.51997e-07 2.87726e-27)
(-8.69917e-07 -9.48716e-07 -1.61804e-27)
(-8.06049e-07 -9.37923e-07 -3.03572e-27)
(-7.47132e-07 -9.20329e-07 1.01445e-26)
(-6.92531e-07 -8.96626e-07 8.00264e-29)
(-6.4162e-07 -8.67496e-07 -1.2299e-26)
(-5.9382e-07 -8.33599e-07 -4.6345e-28)
(-5.48631e-07 -7.95558e-07 3.38513e-27)
(-5.05663e-07 -7.53919e-07 1.46509e-26)
(-4.64679e-07 -7.09118e-07 4.14026e-28)
(-4.25635e-07 -6.6142e-07 -1.40637e-26)
(-3.88763e-07 -6.10859e-07 -6.68782e-27)
(-3.54653e-07 -5.57118e-07 -1.44544e-26)
(-3.24447e-07 -4.99451e-07 2.2431e-26)
(-2.9991e-07 -4.36406e-07 3.12039e-26)
(-2.83797e-07 -3.65942e-07 -5.98816e-27)
(-2.7887e-07 -2.8455e-07 9.17927e-27)
(-2.85758e-07 -1.89641e-07 -1.95355e-28)
(-1.47658e-06 -4.9184e-07 5.68955e-27)
(-1.28458e-06 -8.72431e-07 -5.04661e-27)
(-5.25244e-06 2.27114e-05 6.59681e-27)
(-5.09049e-06 2.22374e-05 -1.007e-26)
(-5.07275e-06 2.16e-05 -7.3072e-27)
(-5.05733e-06 2.09532e-05 1.50705e-26)
(-5.04482e-06 2.03051e-05 2.10843e-26)
(-5.0338e-06 1.96603e-05 1.15045e-26)
(-5.02305e-06 1.90215e-05 3.76022e-27)
(-5.01139e-06 1.83903e-05 1.76629e-27)
(-4.99796e-06 1.77674e-05 -1.52737e-26)
(-4.98211e-06 1.71531e-05 -1.82822e-26)
(-4.96344e-06 1.65473e-05 -1.67961e-26)
(-4.94173e-06 1.59499e-05 -9.7682e-27)
(-4.91692e-06 1.53605e-05 4.98979e-27)
(-4.88901e-06 1.4779e-05 1.91923e-27)
(-4.8581e-06 1.42052e-05 -6.62198e-27)
(-4.8243e-06 1.36392e-05 -5.2296e-27)
(-4.78773e-06 1.30808e-05 -2.032e-27)
(-4.74853e-06 1.25301e-05 9.89501e-27)
(-4.70683e-06 1.19872e-05 1.12914e-26)
(-4.66274e-06 1.14524e-05 -6.28182e-27)
(-4.61637e-06 1.09258e-05 -5.82365e-27)
(-4.5678e-06 1.04076e-05 1.03525e-26)
(-4.51711e-06 9.89813e-06 5.69641e-27)
(-4.46438e-06 9.39765e-06 -7.62559e-27)
(-4.40965e-06 8.90645e-06 -2.98421e-27)
(-4.35297e-06 8.42481e-06 4.21125e-27)
(-4.29438e-06 7.95303e-06 2.17702e-27)
(-4.23391e-06 7.4914e-06 -8.71036e-27)
(-4.17158e-06 7.04021e-06 -9.31658e-27)
(-4.1074e-06 6.59973e-06 -3.86615e-28)
(-4.04141e-06 6.17024e-06 -4.54974e-27)
(-3.9736e-06 5.75199e-06 4.40119e-27)
(-3.90398e-06 5.34524e-06 -3.75309e-27)
(-3.83257e-06 4.9502e-06 -6.21606e-27)
(-3.75937e-06 4.56711e-06 3.01586e-27)
(-3.6844e-06 4.19617e-06 -1.76324e-27)
(-3.60765e-06 3.83757e-06 -2.49952e-28)
(-3.52915e-06 3.49148e-06 -8.08572e-27)
(-3.4489e-06 3.15807e-06 -1.80938e-27)
(-3.36692e-06 2.83748e-06 3.38448e-27)
(-3.28324e-06 2.52984e-06 5.24825e-27)
(-3.19786e-06 2.23528e-06 4.69807e-27)
(-3.1108e-06 1.9539e-06 -6.16237e-28)
(-3.02209e-06 1.68578e-06 -1.36266e-28)
(-2.93175e-06 1.43099e-06 1.58571e-27)
(-2.83978e-06 1.18959e-06 -2.54703e-27)
(-2.74621e-06 9.61589e-07 -5.84649e-27)
(-2.65104e-06 7.47009e-07 2.27191e-27)
(-2.55429e-06 5.45821e-07 1.58343e-27)
(-2.45596e-06 3.57974e-07 2.3108e-28)
(-2.35605e-06 1.8338e-07 3.24478e-27)
(-2.25457e-06 2.19147e-08 -3.29583e-27)
(-2.15153e-06 -1.26583e-07 -1.86487e-27)
(-2.04694e-06 -2.62311e-07 -3.38902e-27)
(-1.94085e-06 -3.85504e-07 -3.79391e-27)
(-1.83333e-06 -4.96417e-07 5.64027e-27)
(-1.72449e-06 -5.95311e-07 1.24764e-27)
(-1.61452e-06 -6.82421e-07 -3.0798e-27)
(-1.50368e-06 -7.57912e-07 1.53972e-27)
(-1.39233e-06 -8.21814e-07 2.28356e-27)
(-6.29132e-06 2.28871e-05 -7.27043e-27)
(-5.7021e-06 2.28778e-05 -4.49098e-27)
(-7.33045e-06 2.27267e-05 -2.04751e-28)
(-6.88004e-06 2.2886e-05 -1.66104e-27)
(-1.63256e-06 -4.43086e-07 1.91203e-27)
(-1.79241e-06 -3.81276e-07 -2.44336e-27)
(-1.95116e-06 -3.08052e-07 -6.50586e-27)
(-2.10906e-06 -2.23385e-07 8.64e-28)
(-2.26623e-06 -1.27112e-07 3.71036e-27)
(-2.42274e-06 -1.89965e-08 -9.68255e-27)
(-2.57855e-06 1.01221e-07 -6.50229e-27)
(-2.73362e-06 2.33796e-07 1.3263e-26)
(-2.88784e-06 3.78961e-07 1.15931e-26)
(-3.04112e-06 5.36917e-07 -1.58105e-27)
(-3.19332e-06 7.07826e-07 3.3768e-27)
(-3.34432e-06 8.91813e-07 -1.61143e-27)
(-3.49399e-06 1.08897e-06 -4.49023e-27)
(-3.64221e-06 1.29934e-06 -3.8801e-27)
(-3.78887e-06 1.52297e-06 1.73335e-27)
(-3.93385e-06 1.75984e-06 2.98498e-27)
(-4.07704e-06 2.00994e-06 -1.39016e-27)
(-4.21834e-06 2.27321e-06 2.03783e-27)
(-4.35766e-06 2.54961e-06 -2.7215e-27)
(-4.4949e-06 2.83904e-06 -1.121e-27)
(-4.62998e-06 3.14141e-06 -6.96145e-28)
(-4.76282e-06 3.45661e-06 -1.31107e-27)
(-4.89333e-06 3.78452e-06 2.76901e-27)
(-5.02143e-06 4.125e-06 1.35929e-27)
(-5.14705e-06 4.4779e-06 9.696e-27)
(-5.27011e-06 4.84304e-06 3.50342e-27)
(-5.39055e-06 5.22024e-06 -9.67519e-28)
(-5.50829e-06 5.6093e-06 1.46595e-26)
(-5.62326e-06 6.01001e-06 7.19752e-27)
(-5.7354e-06 6.42214e-06 9.19209e-27)
(-5.84464e-06 6.84544e-06 9.57838e-27)
(-5.95092e-06 7.27965e-06 4.28355e-27)
(-6.05419e-06 7.7245e-06 6.08651e-27)
(-6.15438e-06 8.17971e-06 2.43107e-27)
(-6.25144e-06 8.64499e-06 -2.37092e-28)
(-6.34533e-06 9.12004e-06 -1.10132e-27)
(-6.43599e-06 9.60457e-06 -1.37601e-26)
(-6.5234e-06 1.00983e-05 -9.71409e-27)
(-6.60753e-06 1.06008e-05 8.13277e-27)
(-6.68834e-06 1.1112e-05 8.95489e-27)
(-6.76582e-06 1.16315e-05 -3.66563e-27)
(-6.83997e-06 1.21591e-05 -1.07407e-26)
(-6.91078e-06 1.26945e-05 3.26251e-27)
(-6.97828e-06 1.32377e-05 3.09332e-27)
(-7.04248e-06 1.37884e-05 -1.73401e-28)
(-7.10339e-06 1.43466e-05 -1.3516e-27)
(-7.16105e-06 1.49123e-05 -7.58046e-27)
(-7.21544e-06 1.54855e-05 2.61469e-27)
(-7.26651e-06 1.60665e-05 2.10735e-27)
(-7.31416e-06 1.66554e-05 -1.78163e-27)
(-7.35819e-06 1.72524e-05 1.2457e-26)
(-7.39821e-06 1.78577e-05 2.37057e-27)
(-7.43369e-06 1.84714e-05 -1.28026e-26)
(-7.46381e-06 1.90931e-05 4.77685e-27)
(-7.48749e-06 1.97222e-05 2.28235e-27)
(-7.50342e-06 2.0357e-05 -6.67348e-27)
(-7.51019e-06 2.09948e-05 9.63499e-27)
(-7.50655e-06 2.16312e-05 7.38808e-27)
(-7.49328e-06 2.22593e-05 3.56012e-28)
(5.35123e-08 -7.42239e-09 -1.31863e-26)
(5.23358e-08 -1.85377e-08 -8.61934e-27)
(4.75597e-08 -4.31369e-08 -4.46045e-27)
(3.72329e-08 -7.28407e-08 -1.4264e-26)
(2.02188e-08 -1.07396e-07 1.36286e-26)
(-3.91019e-09 -1.45821e-07 1.5444e-26)
(-3.52137e-08 -1.87235e-07 -1.77653e-26)
(-7.37455e-08 -2.30634e-07 2.26491e-26)
(-1.19486e-07 -2.7502e-07 -6.91342e-27)
(-1.72391e-07 -3.19379e-07 -2.9886e-26)
(-2.32372e-07 -3.62714e-07 2.07724e-26)
(-2.99318e-07 -4.04057e-07 3.49385e-27)
(-3.73097e-07 -4.42482e-07 -6.47497e-27)
(-4.53568e-07 -4.77112e-07 7.34967e-29)
(-5.40596e-07 -5.07125e-07 -8.34667e-27)
(-6.34071e-07 -5.31755e-07 2.41649e-27)
(-7.33922e-07 -5.50281e-07 1.22826e-26)
(-8.40146e-07 -5.62014e-07 -1.11592e-27)
(-9.52826e-07 -5.66272e-07 -4.63894e-27)
(-1.07215e-06 -5.62342e-07 1.43108e-27)
(-1.19844e-06 -5.49425e-07 -3.84312e-28)
(-1.33214e-06 -5.26571e-07 1.74599e-27)
(-2.92056e-07 -1.38772e-07 -4.23133e-26)
(-1.18625e-06 -9.08736e-07 2.55163e-27)
(-1.09709e-06 -9.32924e-07 4.35019e-28)
(-1.01491e-06 -9.47014e-07 -1.17813e-26)
(-9.39351e-07 -9.51997e-07 2.87726e-27)
(-8.69917e-07 -9.48716e-07 -1.61804e-27)
(-8.06049e-07 -9.37923e-07 -3.03572e-27)
(-7.47132e-07 -9.20329e-07 1.01445e-26)
(-6.92531e-07 -8.96626e-07 8.00264e-29)
(-6.4162e-07 -8.67496e-07 -1.2299e-26)
(-5.9382e-07 -8.33599e-07 -4.6345e-28)
(-5.48631e-07 -7.95558e-07 3.38513e-27)
(-5.05663e-07 -7.53919e-07 1.46509e-26)
(-4.64679e-07 -7.09118e-07 4.14026e-28)
(-4.25635e-07 -6.6142e-07 -1.40637e-26)
(-3.88763e-07 -6.10859e-07 -6.68782e-27)
(-3.54653e-07 -5.57118e-07 -1.44544e-26)
(-3.24447e-07 -4.99451e-07 2.2431e-26)
(-2.9991e-07 -4.36406e-07 3.12039e-26)
(-2.83797e-07 -3.65942e-07 -5.98816e-27)
(-2.7887e-07 -2.8455e-07 9.17927e-27)
(-2.85758e-07 -1.89641e-07 -1.95355e-28)
)


// ************************************************************************* //
