/*--------------------------------*- C++ -*----------------------------------*\
| =========                 |                                                 |
| \\      /  F ield         | OpenFOAM Extend Project: Open source CFD        |
|  \\    /   O peration     | Version:  1.6-ext                               |
|   \\  /    A nd           | Web:      www.extend-project.de                 |
|    \\/     M anipulation  |                                                 |
\*---------------------------------------------------------------------------*/
FoamFile
{
    version     2.0;
    format      ascii;
    class       tetPointVectorField;
    location    "0.65";
    object      motionU;
}
// * * * * * * * * * * * * * * * * * * * * * * * * * * * * * * * * * * * * * //

dimensions      [0 1 -1 0 0 0 0];

internalField   nonuniform List<vector> 
147960
(
(0 0 0)
(-0.000163132 0.0001449 0)
(-0.00165207 0.00100204 -6.33418e-24)
(-0.00134455 0.000622745 -3.09949e-24)
(-0.00588813 0.023884 1.91852e-23)
(-0.00574374 0.0234629 1.1934e-23)
(-0.00573527 0.0229001 -1.51485e-24)
(-0.00572447 0.0223375 -3.61741e-24)
(-0.00571103 0.0217761 -8.55109e-24)
(-0.0056946 0.0212162 -4.03667e-24)
(-0.00567503 0.0206579 -1.15107e-23)
(-0.0056522 0.0201012 -1.02848e-23)
(-0.00562609 0.0195461 5.13477e-25)
(-0.00559673 0.0189926 -1.68772e-23)
(-0.00556419 0.0184405 -2.15725e-23)
(-0.00552855 0.0178901 5.10038e-25)
(-0.00548994 0.0173413 2.52705e-24)
(-0.00544849 0.0167943 1.27362e-24)
(-0.00540434 0.0162493 2.11498e-23)
(-0.00535762 0.0157067 8.56424e-24)
(-0.00530849 0.0151668 -1.77527e-23)
(-0.00525707 0.0146299 -1.03707e-23)
(-0.0052035 0.0140966 -1.17193e-23)
(-0.00514789 0.0135672 -1.33699e-23)
(-0.00509035 0.0130424 -2.11266e-23)
(-0.00503098 0.0125227 -7.46394e-24)
(-0.00496985 0.0120087 2.73226e-24)
(-0.00490703 0.011501 -7.82483e-24)
(-0.00484258 0.0110002 2.73568e-24)
(-0.00477654 0.0105069 2.25529e-24)
(-0.00470892 0.0100217 -1.06587e-24)
(-0.00463974 0.0095452 4.54731e-25)
(-0.004569 0.00907799 -3.59553e-24)
(-0.00449668 0.00862062 -1.91985e-24)
(-0.00442278 0.00817361 -1.79844e-25)
(-0.00434727 0.00773745 -1.31746e-23)
(-0.0042701 0.0073126 -1.05255e-23)
(-0.00419125 0.00689947 7.46969e-24)
(-0.00411068 0.00649844 4.55939e-24)
(-0.00402835 0.00610985 1.31158e-23)
(-0.00394421 0.005734 7.27194e-24)
(-0.00385824 0.00537112 -1.18817e-23)
(-0.00377039 0.00502143 7.10503e-24)
(-0.00368063 0.0046851 8.35095e-24)
(-0.00358894 0.00436225 -4.08436e-24)
(-0.00349528 0.00405297 -1.76287e-24)
(-0.00339964 0.00375729 2.33805e-24)
(-0.00330201 0.00347522 -5.12193e-24)
(-0.00320238 0.00320673 -3.3606e-24)
(-0.00310074 0.00295176 -2.8128e-24)
(-0.0029971 0.00271021 -1.88856e-25)
(-0.00289146 0.00248195 1.23907e-23)
(-0.00278385 0.00226683 6.94812e-24)
(-0.00267427 0.00206467 -6.17047e-24)
(-0.00256275 0.00187527 -8.45366e-24)
(-0.00244931 0.0016984 5.31458e-25)
(-0.00233398 0.00153382 1.33324e-24)
(-0.00221675 0.00138126 -5.74614e-25)
(-0.00209765 0.00124045 1.01313e-24)
(-0.00197665 0.00111105 -1.523e-24)
(-0.00185371 0.000992729 -1.39811e-24)
(-0.00172875 0.000885056 1.25448e-25)
(-0.00160164 0.000787535 9.04008e-25)
(-0.0014722 0.000699544 8.63799e-25)
(-0.00686561 0.0240229 -4.45817e-26)
(-0.006308 0.0240236 4.19214e-24)
(-0.00783818 0.0238825 -7.91751e-24)
(-0.00742199 0.0240222 3.78831e-24)
(-0.00181036 0.00107681 -2.12607e-24)
(-0.00197496 0.00116251 5.73082e-24)
(-0.00214015 0.00125754 5.80063e-24)
(-0.00230562 0.00136253 -6.93364e-24)
(-0.0024711 0.00147797 1.04553e-24)
(-0.00263635 0.00160428 7.22052e-24)
(-0.0028012 0.00174181 -5.19469e-24)
(-0.00296547 0.00189089 -5.47549e-24)
(-0.00312904 0.0020518 3.86858e-24)
(-0.00329177 0.00222481 2.97755e-24)
(-0.00345354 0.00241015 -5.14174e-24)
(-0.00361423 0.00260807 -1.69706e-24)
(-0.00377373 0.00281875 3.91577e-24)
(-0.0039319 0.00304238 4.67443e-25)
(-0.00408863 0.00327913 -2.77674e-24)
(-0.00424379 0.00352912 2.00175e-24)
(-0.00439726 0.00379245 7.10502e-24)
(-0.00454891 0.00406921 4.57396e-24)
(-0.0046986 0.00435942 1.35807e-24)
(-0.00484621 0.00466308 -2.35151e-24)
(-0.0049916 0.00498017 8.58436e-24)
(-0.00513464 0.00531061 6.52945e-24)
(-0.0052752 0.00565428 4.17745e-24)
(-0.00541314 0.00601102 1.27309e-23)
(-0.00554833 0.00638064 -8.28844e-24)
(-0.00568064 0.0067629 -3.68269e-24)
(-0.00580995 0.0071575 9.47488e-24)
(-0.00593613 0.00756411 -2.71691e-24)
(-0.00605906 0.00798237 -7.96548e-24)
(-0.00617862 0.00841186 -3.92099e-24)
(-0.0062947 0.00885212 -2.66187e-24)
(-0.0064072 0.00930266 -4.76312e-24)
(-0.00651602 0.00976296 -2.3897e-24)
(-0.00662108 0.0102325 3.98109e-24)
(-0.00672229 0.0107106 9.11913e-24)
(-0.00681958 0.0111967 1.21141e-24)
(-0.00691289 0.0116903 3.59575e-24)
(-0.00700218 0.0121907 -5.03901e-25)
(-0.00708742 0.0126972 -1.91682e-24)
(-0.00716859 0.0132093 2.58088e-24)
(-0.00724567 0.0137264 -2.479e-24)
(-0.00731867 0.0142479 -7.08494e-24)
(-0.00738762 0.0147733 -8.84061e-24)
(-0.00745253 0.0153021 -1.31884e-23)
(-0.00751346 0.0158338 -1.38711e-23)
(-0.00757046 0.0163681 1.15222e-23)
(-0.00762358 0.0169045 1.54052e-23)
(-0.00767289 0.0174429 1.28039e-24)
(-0.00771845 0.017983 -1.88419e-23)
(-0.00776034 0.0185246 -1.88537e-23)
(-0.0077986 0.0190678 -5.09816e-24)
(-0.00783329 0.0196123 -1.28723e-24)
(-0.00786442 0.0201583 1.7558e-24)
(-0.00789197 0.0207058 1.10943e-24)
(-0.0079159 0.0212548 1.88649e-23)
(-0.0079361 0.0218054 -9.33066e-24)
(-0.00795243 0.0223574 -2.16003e-23)
(-0.00796485 0.0229108 -6.95128e-25)
(-0.00797328 0.0234654 -1.70759e-23)
(-0.00703141 0.0201555 0)
(-0.00786449 0.0236017 0)
(-0.00782992 0.0234153 0)
(-0.00779988 0.0232229 0)
(-0.00776849 0.0230188 0)
(-0.00773374 0.0228058 0)
(-0.00769493 0.0225839 0)
(-0.00765055 0.0223544 0)
(-0.00760098 0.0221148 0)
(-0.00754473 0.0218677 0)
(-0.00748131 0.0216099 0)
(-0.00741046 0.0213407 0)
(-0.00733015 0.0210637 0)
(-0.00724213 0.0207719 0)
(-0.00714242 0.020468 0)
(-0.00129357 0.000910686 0)
(-0.00142539 0.00100591 0)
(-0.00156197 0.00110667 0)
(-0.00170251 0.00121336 0)
(-0.00184712 0.00132669 0)
(-0.00199535 0.00144725 0)
(-0.00214598 0.00157523 0)
(-0.00229856 0.00171113 0)
(-0.0024528 0.00185542 0)
(-0.00260837 0.00200868 0)
(-0.00276495 0.00217152 0)
(-0.00292225 0.00234448 0)
(-0.00307995 0.00252797 0)
(-0.0032377 0.00272229 0)
(-0.00339515 0.00292769 0)
(-0.00355206 0.00314446 0)
(-0.00370824 0.00337291 0)
(-0.0038634 0.00361326 0)
(-0.00401726 0.00386569 0)
(-0.00416949 0.00413011 0)
(-0.00432033 0.00440733 0)
(-0.00446957 0.00469738 0)
(-0.00461656 0.00499923 0)
(-0.00476114 0.00531306 0)
(-0.00490318 0.00563886 0)
(-0.00504254 0.00597652 0)
(-0.00517909 0.00632587 0)
(-0.00531267 0.00668665 0)
(-0.00544309 0.00705859 0)
(-0.00557023 0.00744132 0)
(-0.00569401 0.00783448 0)
(-0.00581429 0.00823763 0)
(-0.0059309 0.00865023 0)
(-0.0060437 0.00907179 0)
(-0.00615243 0.00950187 0)
(-0.00625663 0.00993942 0)
(-0.00635622 0.0103852 0)
(-0.00645106 0.010839 0)
(-0.00654082 0.0112983 0)
(-0.00662573 0.0117621 0)
(-0.00670613 0.0122296 0)
(-0.00678182 0.0127001 0)
(-0.00685215 0.0131727 0)
(-0.00691684 0.0136468 0)
(-0.00697644 0.0141214 0)
(-0.00703118 0.0145952 0)
(-0.00708011 0.0150667 0)
(-0.00712248 0.0155336 0)
(-0.00715869 0.015994 0)
(-0.00718945 0.0164465 0)
(-0.00721471 0.0168896 0)
(-0.00723302 0.0173208 0)
(-0.00724286 0.0177369 0)
(-0.00724479 0.0181343 0)
(-0.0072391 0.0185098 0)
(-0.00722602 0.0188606 0)
(-0.00720544 0.0191842 0)
(-0.00717592 0.0194778 0)
(-0.00713692 0.019739 0)
(-0.0070882 0.0199658 0)
(-0.00542169 0.019969 0)
(-0.00550246 0.0203083 0)
(-0.00557614 0.0206348 0)
(-0.0056343 0.0209498 0)
(-0.00568812 0.0212461 0)
(-0.00573595 0.0215299 0)
(-0.00577219 0.0218039 0)
(-0.00580553 0.0220636 0)
(-0.00583178 0.022313 0)
(-0.00585067 0.0225534 0)
(-0.00586633 0.0227823 0)
(-0.00587417 0.0230024 0)
(-0.00587668 0.0232121 0)
(-0.00587099 0.0234092 0)
(-0.00585217 0.0235992 0)
(-0.000994891 0.000656154 0)
(-0.0013274 0.000619219 0)
(-0.00130691 0.000618881 0)
(-0.00128281 0.000620247 0)
(-0.00125643 0.000623231 0)
(-0.00122931 0.000627051 0)
(-0.00120239 0.000631676 0)
(-0.00117611 0.000636924 0)
(-0.00115041 0.000642024 0)
(-0.0011262 0.000647315 0)
(-0.00110325 0.000652407 0)
(-0.00108097 0.000656097 0)
(-0.00105915 0.000658765 0)
(-0.00103786 0.000659732 0)
(-0.00101695 0.000658669 0)
(-0.00543166 0.01978 0)
(-0.00543561 0.0195537 0)
(-0.00543442 0.019292 0)
(-0.00542914 0.018997 0)
(-0.00541966 0.0186712 0)
(-0.00540699 0.0183176 0)
(-0.00539128 0.0179388 0)
(-0.00537246 0.0175378 0)
(-0.00535024 0.0171178 0)
(-0.00532374 0.0166824 0)
(-0.00529405 0.0162349 0)
(-0.00526197 0.0157778 0)
(-0.00522743 0.0153127 0)
(-0.0051899 0.0148411 0)
(-0.00514884 0.014365 0)
(-0.00510464 0.0138864 0)
(-0.00505798 0.013407 0)
(-0.00500862 0.0129283 0)
(-0.00495605 0.012451 0)
(-0.00490041 0.0119759 0)
(-0.00484223 0.0115039 0)
(-0.00478167 0.0110357 0)
(-0.00471833 0.0105722 0)
(-0.0046519 0.0101142 0)
(-0.00458261 0.00966442 0)
(-0.00451056 0.0092229 0)
(-0.00443574 0.00878896 0)
(-0.00435851 0.00836363 0)
(-0.00427905 0.00794736 0)
(-0.00419739 0.00754065 0)
(-0.00411361 0.00714405 0)
(-0.00402769 0.00675799 0)
(-0.00393958 0.00638285 0)
(-0.00384929 0.00601899 0)
(-0.00375686 0.00566671 0)
(-0.00366231 0.00532624 0)
(-0.00356565 0.00499778 0)
(-0.00346684 0.00468147 0)
(-0.00336592 0.0043773 0)
(-0.0032629 0.00408515 0)
(-0.00315818 0.00380607 0)
(-0.00305178 0.00354007 0)
(-0.00294342 0.00328634 0)
(-0.00283328 0.003045 0)
(-0.00272155 0.00281588 0)
(-0.00260838 0.0025988 0)
(-0.00249382 0.00239351 0)
(-0.00237794 0.00219977 0)
(-0.00226096 0.00201738 0)
(-0.00214322 0.00184608 0)
(-0.00202499 0.00168556 0)
(-0.00190652 0.00153537 0)
(-0.00178811 0.00139502 0)
(-0.00167005 0.00126405 0)
(-0.00155262 0.00114208 0)
(-0.00143615 0.00102875 0)
(-0.00132174 0.000923969 0)
(-0.00120987 0.000827281 0)
(-0.00110056 0.000738071 0)
(-0.00112515 0.000741524 0)
(-0.00114997 0.000744238 0)
(-0.00117456 0.000743683 0)
(-0.00119904 0.000741088 0)
(-0.00122492 0.000738231 0)
(-0.00125083 0.000733183 0)
(-0.00127777 0.00072762 0)
(-0.00130579 0.000722317 0)
(-0.00133364 0.000715975 0)
(-0.00136226 0.000710645 0)
(-0.00139003 0.000705617 0)
(-0.00141648 0.000701394 0)
(-0.00144002 0.000698909 0)
(-0.0014593 0.000698337 0)
(-0.00123744 0.000832381 0)
(-0.00126543 0.000835917 0)
(-0.00129251 0.000835402 0)
(-0.00131982 0.000833597 0)
(-0.00134833 0.000830958 0)
(-0.00137636 0.000825772 0)
(-0.00140559 0.000820384 0)
(-0.00143511 0.0008144 0)
(-0.00146425 0.000807515 0)
(-0.0014937 0.000801452 0)
(-0.00152154 0.000795367 0)
(-0.00154763 0.000790257 0)
(-0.00157041 0.000787003 0)
(-0.00158867 0.000785891 0)
(-0.00135216 0.000930562 0)
(-0.00138306 0.000934847 0)
(-0.00141238 0.000934692 0)
(-0.00144212 0.000933698 0)
(-0.0014724 0.000931096 0)
(-0.00150211 0.000925813 0)
(-0.00153315 0.000920655 0)
(-0.00156356 0.000914217 0)
(-0.00159343 0.000906826 0)
(-0.00162318 0.000900232 0)
(-0.00165075 0.000893424 0)
(-0.00167637 0.000887781 0)
(-0.00169845 0.000884187 0)
(-0.00171613 0.000883085 0)
(-0.00146933 0.00103695 0)
(-0.00150239 0.00104176 0)
(-0.00153344 0.00104211 0)
(-0.00156523 0.00104196 0)
(-0.00159716 0.00103969 0)
(-0.00162789 0.00103431 0)
(-0.00165997 0.00102922 0)
(-0.00169086 0.00102246 0)
(-0.00172088 0.00101474 0)
(-0.00175067 0.00100787 0)
(-0.00177779 0.00100071 0)
(-0.00180288 0.00099484 0)
(-0.00182438 0.000991247 0)
(-0.00184151 0.000990375 0)
(-0.00158787 0.00115171 0)
(-0.00162267 0.00115715 0)
(-0.00165502 0.00115807 0)
(-0.00168846 0.00115878 0)
(-0.00172154 0.00115683 0)
(-0.00175291 0.00115151 0)
(-0.00178563 0.00114665 0)
(-0.00181669 0.00113993 0)
(-0.00184659 0.00113204 0)
(-0.00187616 0.0011251 0)
(-0.00190279 0.00111793 0)
(-0.0019273 0.00111213 0)
(-0.00194824 0.00110875 0)
(-0.00196486 0.00110824 0)
(-0.00170713 0.00127525 0)
(-0.00174334 0.00128147 0)
(-0.00177657 0.00128298 0)
(-0.00181126 0.00128458 0)
(-0.00184519 0.00128318 0)
(-0.0018768 0.00127812 0)
(-0.00190989 0.00127361 0)
(-0.00194095 0.00126719 0)
(-0.00197049 0.00125944 0)
(-0.00199965 0.00125257 0)
(-0.00202577 0.00124561 0)
(-0.00204975 0.00124017 0)
(-0.00207011 0.00123718 0)
(-0.00208623 0.00123714 0)
(-0.00182669 0.00140791 0)
(-0.0018641 0.00141515 0)
(-0.00189779 0.00141733 0)
(-0.00193321 0.00141984 0)
(-0.00196779 0.00141926 0)
(-0.00199948 0.00141476 0)
(-0.00203257 0.00141074 0)
(-0.0020635 0.00140482 0)
(-0.00209262 0.00139748 0)
(-0.00212113 0.0013908 0)
(-0.00214671 0.00138419 0)
(-0.00217024 0.0013794 0)
(-0.00219006 0.00137694 0)
(-0.00220568 0.00137744 0)
(-0.00194624 0.00155006 0)
(-0.0019846 0.00155866 0)
(-0.00201848 0.0015617 0)
(-0.00205408 0.00156503 0)
(-0.00208906 0.00156546 0)
(-0.00212084 0.00156202 0)
(-0.00215375 0.00155863 0)
(-0.00218427 0.00155336 0)
(-0.00221298 0.00154671 0)
(-0.00224116 0.00154087 0)
(-0.00226603 0.00153464 0)
(-0.00228881 0.00153026 0)
(-0.00230806 0.00152837 0)
(-0.00232324 0.00152946 0)
(-0.00206543 0.00170214 0)
(-0.00210452 0.00171242 0)
(-0.0021385 0.00171671 0)
(-0.00217432 0.00172136 0)
(-0.00220934 0.00172282 0)
(-0.00224072 0.00172035 0)
(-0.00227331 0.0017178 0)
(-0.00230331 0.00171329 0)
(-0.00233144 0.00170745 0)
(-0.00235912 0.00170238 0)
(-0.00238331 0.00169681 0)
(-0.00240546 0.00169306 0)
(-0.00242416 0.00169179 0)
(-0.0024389 0.0016935 0)
(-0.002184 0.00186457 0)
(-0.00222355 0.00187678 0)
(-0.00225761 0.00188266 0)
(-0.00229334 0.00188856 0)
(-0.00232808 0.00189122 0)
(-0.00235897 0.00188998 0)
(-0.00239114 0.00188855 0)
(-0.00242057 0.001885 0)
(-0.00244803 0.00188005 0)
(-0.00247508 0.00187583 0)
(-0.00249861 0.00187107 0)
(-0.00252017 0.00186807 0)
(-0.00253835 0.00186749 0)
(-0.00255265 0.00186983 0)
(-0.00230184 0.00203781 0)
(-0.00234149 0.00205201 0)
(-0.00237544 0.00205971 0)
(-0.00241103 0.00206711 0)
(-0.00244534 0.00207117 0)
(-0.00247556 0.00207131 0)
(-0.0025072 0.00207117 0)
(-0.00253598 0.00206879 0)
(-0.00256274 0.00206488 0)
(-0.00258914 0.00206159 0)
(-0.00261196 0.00205774 0)
(-0.00263292 0.00205555 0)
(-0.0026506 0.00205571 0)
(-0.00266448 0.00205869 0)
(-0.00241883 0.00222228 0)
(-0.00245827 0.00223849 0)
(-0.00249168 0.00224805 0)
(-0.0025271 0.00225721 0)
(-0.00256108 0.00226313 0)
(-0.00259052 0.00226477 0)
(-0.00262148 0.002266 0)
(-0.00264952 0.00226491 0)
(-0.00267554 0.00226219 0)
(-0.00270127 0.00225995 0)
(-0.00272337 0.00225707 0)
(-0.00274373 0.00225576 0)
(-0.00276089 0.00225668 0)
(-0.00277436 0.00226033 0)
(-0.00253473 0.00241836 0)
(-0.00257389 0.00243678 0)
(-0.00260683 0.00244882 0)
(-0.00264181 0.00245989 0)
(-0.00267511 0.00246743 0)
(-0.00270374 0.00247067 0)
(-0.00273398 0.00247337 0)
(-0.00276119 0.00247365 0)
(-0.00278639 0.00247221 0)
(-0.00281142 0.00247112 0)
(-0.0028328 0.0024693 0)
(-0.00285257 0.0024689 0)
(-0.00286921 0.00247062 0)
(-0.00288227 0.00247493 0)
(-0.00264929 0.00262626 0)
(-0.00268819 0.00264705 0)
(-0.0027204 0.0026614 0)
(-0.0027547 0.00267463 0)
(-0.00278727 0.00268415 0)
(-0.00281505 0.0026892 0)
(-0.00284457 0.00269351 0)
(-0.00287094 0.00269526 0)
(-0.00289529 0.00269518 0)
(-0.00291957 0.0026953 0)
(-0.00294023 0.0026946 0)
(-0.00295941 0.00269517 0)
(-0.00297555 0.0026977 0)
(-0.00298821 0.00270267 0)
(-0.00276229 0.00284614 0)
(-0.00280076 0.0028693 0)
(-0.00283226 0.00288607 0)
(-0.00286591 0.00290189 0)
(-0.00289763 0.00291353 0)
(-0.00292444 0.00292053 0)
(-0.00295319 0.00292657 0)
(-0.00297871 0.0029299 0)
(-0.00300219 0.00293125 0)
(-0.00302573 0.00293264 0)
(-0.00304568 0.00293313 0)
(-0.00306427 0.00293472 0)
(-0.0030799 0.00293808 0)
(-0.00309214 0.00294373 0)
(-0.00287369 0.00307833 0)
(-0.00291189 0.00310469 0)
(-0.00294261 0.00312402 0)
(-0.00297536 0.00314201 0)
(-0.00300619 0.00315581 0)
(-0.00303195 0.00316485 0)
(-0.00305985 0.00317273 0)
(-0.00308447 0.00317771 0)
(-0.00310706 0.00318052 0)
(-0.00312987 0.00318324 0)
(-0.00314912 0.00318504 0)
(-0.00316713 0.00318769 0)
(-0.00318225 0.0031919 0)
(-0.00319408 0.00319821 0)
(-0.00298342 0.00332288 0)
(-0.0030211 0.00335227 0)
(-0.00305097 0.00337449 0)
(-0.00308292 0.00339502 0)
(-0.00311285 0.00341114 0)
(-0.00313757 0.00342235 0)
(-0.00316458 0.00343216 0)
(-0.00318824 0.00343886 0)
(-0.00320981 0.00344295 0)
(-0.00323196 0.0034471 0)
(-0.00325058 0.00345048 0)
(-0.00326799 0.00345421 0)
(-0.00328259 0.00345926 0)
(-0.00329401 0.00346623 0)
(-0.00309125 0.00357964 0)
(-0.00312847 0.00361221 0)
(-0.0031575 0.00363779 0)
(-0.00318859 0.00366105 0)
(-0.00321759 0.00367963 0)
(-0.00324124 0.00369314 0)
(-0.00326736 0.00370502 0)
(-0.00329012 0.00371366 0)
(-0.00331096 0.0037199 0)
(-0.00333233 0.00372526 0)
(-0.00335007 0.00372961 0)
(-0.00336684 0.00373434 0)
(-0.00338092 0.00374023 0)
(-0.00339193 0.00374784 0)
(-0.00319747 0.00384982 0)
(-0.00323421 0.00388569 0)
(-0.00326215 0.00391416 0)
(-0.00329235 0.00394017 0)
(-0.00332041 0.00396132 0)
(-0.00334298 0.00397726 0)
(-0.0033682 0.00399129 0)
(-0.00339004 0.00400195 0)
(-0.00341002 0.00401 0)
(-0.0034306 0.00401678 0)
(-0.00344756 0.00402234 0)
(-0.0034637 0.00402811 0)
(-0.00347725 0.00403483 0)
(-0.00348786 0.00404308 0)
(-0.00330164 0.0041323 0)
(-0.00333782 0.00417183 0)
(-0.00336478 0.00420351 0)
(-0.00339413 0.0042324 0)
(-0.00342128 0.00425621 0)
(-0.00344278 0.00427466 0)
(-0.00346708 0.00429093 0)
(-0.00348797 0.00430362 0)
(-0.00350704 0.00431347 0)
(-0.00352684 0.00432179 0)
(-0.00354304 0.00432865 0)
(-0.00355856 0.00433549 0)
(-0.0035716 0.00434305 0)
(-0.0035818 0.00435195 0)
(-0.00340406 0.0044281 0)
(-0.00343937 0.0044708 0)
(-0.00346532 0.00450579 0)
(-0.00349386 0.00453767 0)
(-0.00352011 0.00456426 0)
(-0.00354055 0.00458531 0)
(-0.00356395 0.00460386 0)
(-0.00358389 0.00461862 0)
(-0.00360205 0.00463034 0)
(-0.00362108 0.00464027 0)
(-0.00363653 0.0046485 0)
(-0.00365145 0.00465645 0)
(-0.00366398 0.00466487 0)
(-0.00367378 0.0046744 0)
(-0.00350429 0.00473611 0)
(-0.00353881 0.00478241 0)
(-0.00356375 0.0048209 0)
(-0.00359145 0.00485591 0)
(-0.00361681 0.00488537 0)
(-0.00363623 0.00490912 0)
(-0.00365876 0.00493001 0)
(-0.00367777 0.00494689 0)
(-0.00369505 0.00496054 0)
(-0.00371333 0.00497216 0)
(-0.00372805 0.00498182 0)
(-0.00374237 0.00499091 0)
(-0.00375441 0.00500019 0)
(-0.00376381 0.00501035 0)
(-0.00360241 0.00505646 0)
(-0.00363615 0.00510658 0)
(-0.00366005 0.00514875 0)
(-0.00368689 0.005187 0)
(-0.00371138 0.00521945 0)
(-0.0037298 0.00524599 0)
(-0.0037515 0.00526927 0)
(-0.00376961 0.00528827 0)
(-0.00378605 0.00530391 0)
(-0.00380363 0.00531733 0)
(-0.00381762 0.00532851 0)
(-0.00383136 0.00533875 0)
(-0.00384291 0.00534891 0)
(-0.00385193 0.00535967 0)
(-0.00369843 0.00538911 0)
(-0.00373141 0.00544322 0)
(-0.00375427 0.00548923 0)
(-0.00378025 0.00553085 0)
(-0.00380386 0.00556639 0)
(-0.0038213 0.00559582 0)
(-0.00384218 0.00562154 0)
(-0.00385934 0.00564241 0)
(-0.00387503 0.00566015 0)
(-0.00389198 0.00567573 0)
(-0.00390528 0.00568842 0)
(-0.00391845 0.00569983 0)
(-0.00392953 0.00571085 0)
(-0.00393817 0.00572221 0)
(-0.00379236 0.00573391 0)
(-0.00382463 0.00579217 0)
(-0.00384648 0.00584218 0)
(-0.00387161 0.00588728 0)
(-0.00389433 0.00592603 0)
(-0.00391079 0.0059585 0)
(-0.00393092 0.00598692 0)
(-0.0039474 0.0060107 0)
(-0.00396228 0.00603034 0)
(-0.00397845 0.00604727 0)
(-0.00399105 0.00606138 0)
(-0.00400366 0.00607394 0)
(-0.00401429 0.00608581 0)
(-0.00402256 0.00609776 0)
(-0.00388422 0.00609067 0)
(-0.00391582 0.00615323 0)
(-0.00393671 0.00620738 0)
(-0.00396102 0.00625607 0)
(-0.00398288 0.00629813 0)
(-0.00399837 0.00633375 0)
(-0.00401772 0.0063649 0)
(-0.00403342 0.00639118 0)
(-0.00404753 0.00641294 0)
(-0.00406304 0.00643155 0)
(-0.00407498 0.00644712 0)
(-0.00408705 0.00646083 0)
(-0.00409723 0.00647355 0)
(-0.00410515 0.00648607 0)
(-0.00397397 0.00645914 0)
(-0.00400491 0.00652614 0)
(-0.0040249 0.00658457 0)
(-0.00404846 0.00663695 0)
(-0.0040695 0.0066824 0)
(-0.00408404 0.00672118 0)
(-0.0041026 0.00675499 0)
(-0.00411749 0.00678376 0)
(-0.00413088 0.00680784 0)
(-0.00414578 0.00682827 0)
(-0.0041571 0.00684534 0)
(-0.00416866 0.00686021 0)
(-0.00417839 0.00687377 0)
(-0.00418596 0.00688684 0)
(-0.00406154 0.00683901 0)
(-0.00409186 0.00691059 0)
(-0.00411099 0.00697344 0)
(-0.00413385 0.00702961 0)
(-0.00415415 0.00707854 0)
(-0.00416779 0.00712053 0)
(-0.0041855 0.00715665 0)
(-0.00419966 0.00718804 0)
(-0.00421241 0.00721486 0)
(-0.00422671 0.00723715 0)
(-0.00423745 0.00725573 0)
(-0.00424851 0.00727176 0)
(-0.00425782 0.00728614 0)
(-0.00426505 0.00729974 0)
(-0.00414698 0.00722994 0)
(-0.0041767 0.00730624 0)
(-0.00419499 0.00737364 0)
(-0.0042172 0.0074337 0)
(-0.00423681 0.00748623 0)
(-0.00424967 0.00753172 0)
(-0.00426682 0.00757135 0)
(-0.00428023 0.00760518 0)
(-0.00429219 0.00763383 0)
(-0.00430588 0.00765785 0)
(-0.00431604 0.00767794 0)
(-0.00432663 0.00769511 0)
(-0.00433553 0.00771029 0)
(-0.00434244 0.00772439 0)
(-0.00423036 0.00763155 0)
(-0.00425952 0.00771269 0)
(-0.00427698 0.00778478 0)
(-0.00429855 0.00784883 0)
(-0.00431751 0.00790504 0)
(-0.00432962 0.00795402 0)
(-0.00434618 0.00799672 0)
(-0.0043589 0.00803326 0)
(-0.00437018 0.00806416 0)
(-0.00438331 0.00808996 0)
(-0.00439291 0.00811154 0)
(-0.00440306 0.00812984 0)
(-0.00441157 0.0081458 0)
(-0.00441818 0.00816038 0)
(-0.00431165 0.00804338 0)
(-0.0043403 0.00812951 0)
(-0.00435698 0.00820643 0)
(-0.00437793 0.00827455 0)
(-0.00439624 0.00833447 0)
(-0.00440755 0.00838656 0)
(-0.00442359 0.00843244 0)
(-0.00443573 0.00847219 0)
(-0.0044464 0.00850543 0)
(-0.00445901 0.00853302 0)
(-0.00446809 0.00855609 0)
(-0.00447782 0.0085755 0)
(-0.00448597 0.00859223 0)
(-0.00449228 0.00860726 0)
(-0.00439078 0.00846494 0)
(-0.00441896 0.00855622 0)
(-0.00443492 0.00863809 0)
(-0.0044553 0.0087104 0)
(-0.00447302 0.00877427 0)
(-0.00448377 0.00883077 0)
(-0.0044993 0.00887975 0)
(-0.00451075 0.00892174 0)
(-0.00452084 0.00895721 0)
(-0.00453297 0.00898658 0)
(-0.00454158 0.00901112 0)
(-0.00455093 0.00903162 0)
(-0.00455875 0.00904907 0)
(-0.00456479 0.00906453 0)
(-0.00446768 0.00889572 0)
(-0.00449542 0.0089923 0)
(-0.00451072 0.00907925 0)
(-0.00453055 0.0091558 0)
(-0.00454765 0.00922333 0)
(-0.00455786 0.00928407 0)
(-0.004573 0.00933667 0)
(-0.00458392 0.00938129 0)
(-0.0045935 0.009419 0)
(-0.0046052 0.00945012 0)
(-0.00461339 0.00947611 0)
(-0.0046224 0.00949768 0)
(-0.00462993 0.00951583 0)
(-0.00463572 0.00953167 0)
(-0.00454219 0.0093352 0)
(-0.00456955 0.00943722 0)
(-0.00458423 0.0095294 0)
(-0.00460354 0.00961011 0)
(-0.00462035 0.00968285 0)
(-0.00463011 0.00974798 0)
(-0.00464478 0.00980315 0)
(-0.00465524 0.0098503 0)
(-0.00466439 0.00989026 0)
(-0.00467573 0.00992311 0)
(-0.00468354 0.00995053 0)
(-0.00469225 0.00997313 0)
(-0.00469951 0.00999195 0)
(-0.00470507 0.0100081 0)
(-0.00461407 0.00978274 0)
(-0.00464116 0.00989045 0)
(-0.00465531 0.00998791 0)
(-0.00467447 0.0100745 0)
(-0.00469103 0.0101522 0)
(-0.00470029 0.0102205 0)
(-0.00471464 0.0102785 0)
(-0.00472474 0.0103282 0)
(-0.00473353 0.0103704 0)
(-0.00474457 0.010405 0)
(-0.00475205 0.0104338 0)
(-0.00476048 0.0104574 0)
(-0.0047675 0.0104768 0)
(-0.00477285 0.0104933 0)
(-0.00468311 0.0102375 0)
(-0.00471009 0.0103513 0)
(-0.00472413 0.010456 0)
(-0.00474326 0.010548 0)
(-0.00475955 0.0106293 0)
(-0.00476848 0.0107012 0)
(-0.0047826 0.0107621 0)
(-0.00479241 0.0108144 0)
(-0.00480092 0.0108588 0)
(-0.00481171 0.0108951 0)
(-0.00481888 0.0109254 0)
(-0.00482707 0.0109499 0)
(-0.00483388 0.01097 0)
(-0.00483904 0.0109867 0)
(-0.00474973 0.0107025 0)
(-0.00477682 0.0108226 0)
(-0.00479073 0.0109325 0)
(-0.00480983 0.0110284 0)
(-0.00482602 0.0111136 0)
(-0.00483471 0.0111893 0)
(-0.00484867 0.0112532 0)
(-0.00485823 0.0113082 0)
(-0.0048665 0.011355 0)
(-0.00487709 0.011393 0)
(-0.00488402 0.0114246 0)
(-0.00489201 0.0114501 0)
(-0.00489862 0.0114707 0)
(-0.00490362 0.0114876 0)
(-0.00481346 0.0111727 0)
(-0.00484094 0.011299 0)
(-0.00485503 0.0114146 0)
(-0.00487428 0.0115152 0)
(-0.00489044 0.0116046 0)
(-0.00489893 0.0116842 0)
(-0.00491275 0.0117513 0)
(-0.00492211 0.0118091 0)
(-0.0049302 0.0118582 0)
(-0.00494066 0.011898 0)
(-0.00494741 0.011931 0)
(-0.00495524 0.0119573 0)
(-0.0049617 0.0119784 0)
(-0.00496656 0.0119955 0)
(-0.00487471 0.0116477 0)
(-0.00490277 0.0117804 0)
(-0.00491707 0.011902 0)
(-0.00493649 0.0120076 0)
(-0.00495264 0.0121015 0)
(-0.00496099 0.0121853 0)
(-0.00497477 0.0122558 0)
(-0.00498402 0.0123165 0)
(-0.004992 0.012368 0)
(-0.00500239 0.0124095 0)
(-0.00500901 0.0124438 0)
(-0.00501672 0.012471 0)
(-0.00502306 0.0124925 0)
(-0.00502779 0.0125097 0)
(-0.00493366 0.0121266 0)
(-0.00496218 0.0122661 0)
(-0.00497663 0.0123942 0)
(-0.00499622 0.0125051 0)
(-0.00501249 0.0126039 0)
(-0.00502089 0.012692 0)
(-0.00503475 0.012766 0)
(-0.00504396 0.0128296 0)
(-0.00505189 0.0128836 0)
(-0.00506223 0.0129269 0)
(-0.00506876 0.0129625 0)
(-0.00507639 0.0129905 0)
(-0.00508263 0.0130123 0)
(-0.00508726 0.0130296 0)
(-0.00498991 0.012609 0)
(-0.00501881 0.0127556 0)
(-0.00503348 0.0128904 0)
(-0.00505348 0.013007 0)
(-0.0050701 0.0131109 0)
(-0.00507867 0.0132036 0)
(-0.00509268 0.0132812 0)
(-0.00510189 0.0133479 0)
(-0.00510979 0.0134044 0)
(-0.0051201 0.0134495 0)
(-0.00512657 0.0134865 0)
(-0.00513416 0.0135153 0)
(-0.00514033 0.0135374 0)
(-0.00514489 0.0135547 0)
(-0.00504307 0.0130941 0)
(-0.00507259 0.0132482 0)
(-0.00508784 0.0133901 0)
(-0.00510846 0.0135126 0)
(-0.00512546 0.0136218 0)
(-0.0051342 0.0137192 0)
(-0.00514837 0.0138007 0)
(-0.00515765 0.0138707 0)
(-0.00516559 0.0139298 0)
(-0.00517594 0.0139768 0)
(-0.00518237 0.0140151 0)
(-0.00518994 0.0140447 0)
(-0.00519607 0.0140672 0)
(-0.00520057 0.0140843 0)
(-0.0050934 0.013581 0)
(-0.00512394 0.013743 0)
(-0.0051399 0.0138923 0)
(-0.00516102 0.0140209 0)
(-0.00517832 0.0141356 0)
(-0.0051873 0.0142381 0)
(-0.00520176 0.0143236 0)
(-0.00521122 0.0143972 0)
(-0.00521925 0.0144592 0)
(-0.00522966 0.0145082 0)
(-0.00523608 0.014548 0)
(-0.00524364 0.0145783 0)
(-0.00524975 0.014601 0)
(-0.0052542 0.014618 0)
(-0.00514137 0.0140688 0)
(-0.00517288 0.0142389 0)
(-0.00518927 0.0143957 0)
(-0.00521084 0.0145307 0)
(-0.00522865 0.0146513 0)
(-0.00523806 0.0147593 0)
(-0.0052529 0.0148494 0)
(-0.00526251 0.0149268 0)
(-0.00527064 0.0149919 0)
(-0.00528113 0.0150432 0)
(-0.00528757 0.0150844 0)
(-0.00529515 0.0151156 0)
(-0.00530126 0.0151385 0)
(-0.00530567 0.0151553 0)
(-0.00518669 0.0145561 0)
(-0.00521882 0.0147343 0)
(-0.00523574 0.014899 0)
(-0.00525818 0.0150409 0)
(-0.00527674 0.0151681 0)
(-0.00528655 0.0152821 0)
(-0.00530159 0.0153772 0)
(-0.00531134 0.0154588 0)
(-0.00531964 0.0155273 0)
(-0.00533027 0.015581 0)
(-0.00533676 0.0156239 0)
(-0.00534437 0.015656 0)
(-0.00535047 0.0156791 0)
(-0.00535485 0.0156957 0)
(-0.00522874 0.0150409 0)
(-0.00526176 0.0152277 0)
(-0.00527984 0.0154009 0)
(-0.00530336 0.0155506 0)
(-0.0053224 0.015685 0)
(-0.00533233 0.0158056 0)
(-0.00534769 0.015906 0)
(-0.00535777 0.0159923 0)
(-0.00536629 0.0160647 0)
(-0.00537702 0.0161211 0)
(-0.00538352 0.016166 0)
(-0.00539115 0.0161991 0)
(-0.00539724 0.0162225 0)
(-0.0054016 0.0162389 0)
(-0.00526763 0.0155216 0)
(-0.00530236 0.0157178 0)
(-0.00532179 0.0159005 0)
(-0.00534588 0.0160586 0)
(-0.00536505 0.0162006 0)
(-0.00537551 0.0163282 0)
(-0.00539159 0.0164347 0)
(-0.00540192 0.0165265 0)
(-0.00541043 0.0166033 0)
(-0.00542114 0.0166631 0)
(-0.00542767 0.0167102 0)
(-0.00543533 0.0167445 0)
(-0.00544143 0.0167682 0)
(-0.00544579 0.0167844 0)
(-0.00530408 0.0159966 0)
(-0.00534079 0.0162034 0)
(-0.00536091 0.0163961 0)
(-0.00538513 0.0165629 0)
(-0.00540524 0.0167131 0)
(-0.00541684 0.0168487 0)
(-0.00543316 0.0169624 0)
(-0.00544331 0.0170605 0)
(-0.00545178 0.0171425 0)
(-0.00546264 0.0172061 0)
(-0.00546923 0.017256 0)
(-0.00547687 0.0172918 0)
(-0.00548294 0.017316 0)
(-0.00548727 0.017332 0)
(-0.00533848 0.0164647 0)
(-0.00537632 0.0166824 0)
(-0.00539648 0.0168853 0)
(-0.0054221 0.0170613 0)
(-0.00544399 0.0172209 0)
(-0.00545565 0.0173659 0)
(-0.00547172 0.0174878 0)
(-0.00548202 0.0175929 0)
(-0.0054908 0.0176809 0)
(-0.00550178 0.0177493 0)
(-0.00550812 0.0178028 0)
(-0.0055156 0.0178407 0)
(-0.00552162 0.0178656 0)
(-0.00552591 0.0178814 0)
(-0.00537008 0.0169236 0)
(-0.00540797 0.017152 0)
(-0.00542978 0.0173653 0)
(-0.00545804 0.017552 0)
(-0.00548003 0.0177226 0)
(-0.00549134 0.0178778 0)
(-0.00550805 0.0180086 0)
(-0.00551885 0.0181219 0)
(-0.00552774 0.0182175 0)
(-0.00553813 0.0182921 0)
(-0.00554406 0.01835 0)
(-0.00555146 0.0183907 0)
(-0.00555739 0.0184168 0)
(-0.00556159 0.0184325 0)
(-0.0053975 0.0173699 0)
(-0.00543716 0.0176091 0)
(-0.00546219 0.0178342 0)
(-0.00549108 0.018033 0)
(-0.00551296 0.0182153 0)
(-0.00552539 0.0183814 0)
(-0.00554273 0.0185223 0)
(-0.0055537 0.018646 0)
(-0.0055618 0.0187511 0)
(-0.00557156 0.0188331 0)
(-0.00557748 0.0188967 0)
(-0.0055846 0.0189412 0)
(-0.00559015 0.0189693 0)
(-0.00559418 0.0189852 0)
(-0.00542181 0.0178006 0)
(-0.00546508 0.0180512 0)
(-0.00549166 0.0182894 0)
(-0.00552109 0.0185011 0)
(-0.00554442 0.0186954 0)
(-0.00555759 0.0188733 0)
(-0.00557561 0.0190269 0)
(-0.00558601 0.0191632 0)
(-0.00559324 0.019279 0)
(-0.00560327 0.0193702 0)
(-0.00560857 0.0194417 0)
(-0.00561473 0.0194919 0)
(-0.00561975 0.0195228 0)
(-0.00562362 0.0195394 0)
(-0.00544383 0.0182123 0)
(-0.00549028 0.0184755 0)
(-0.00551858 0.0187277 0)
(-0.00554922 0.0189522 0)
(-0.00557357 0.0191586 0)
(-0.00558853 0.0193508 0)
(-0.0056066 0.0195193 0)
(-0.00561587 0.0196689 0)
(-0.00562381 0.0197975 0)
(-0.00563308 0.0199013 0)
(-0.0056367 0.0199836 0)
(-0.00564189 0.0200416 0)
(-0.0056464 0.0200769 0)
(-0.00564986 0.020095 0)
(-0.00546325 0.0186022 0)
(-0.00551335 0.018879 0)
(-0.00554263 0.0191447 0)
(-0.00557456 0.0193811 0)
(-0.00560236 0.0196015 0)
(-0.00561801 0.0198098 0)
(-0.00563486 0.0199934 0)
(-0.00564563 0.0201581 0)
(-0.00565326 0.0203031 0)
(-0.00566045 0.0204229 0)
(-0.00566291 0.0205192 0)
(-0.00566708 0.0205881 0)
(-0.00567027 0.0206309 0)
(-0.00567286 0.020652 0)
(-0.00548056 0.0189675 0)
(-0.00553261 0.0192575 0)
(-0.00556353 0.0195353 0)
(-0.00560008 0.019784 0)
(-0.00562946 0.0200196 0)