/*--------------------------------*- C++ -*----------------------------------*\
| =========                 |                                                 |
| \\      /  F ield         | OpenFOAM Extend Project: Open source CFD        |
|  \\    /   O peration     | Version:  1.6-ext                               |
|   \\  /    A nd           | Web:      www.extend-project.de                 |
|    \\/     M anipulation  |                                                 |
\*---------------------------------------------------------------------------*/
FoamFile
{
    version     2.0;
    format      ascii;
    class       volScalarField;
    location    "0.65";
    object      p;
}
// * * * * * * * * * * * * * * * * * * * * * * * * * * * * * * * * * * * * * //

dimensions      [0 2 -2 0 0 0 0];

internalField   nonuniform List<scalar> 
20940
(
-0.122453
-0.165764
-0.211227
-0.259104
-0.30884
-0.360499
-0.413575
-0.46759
-0.521686
-0.574749
-0.625423
-0.672308
-0.714215
-0.750403
-0.780717
-0.805557
-0.825724
-0.842209
-0.855931
-0.867659
-0.878912
-0.890856
-0.150594
-0.192725
-0.237182
-0.28344
-0.331268
-0.380498
-0.430597
-0.480957
-0.53064
-0.578521
-0.62337
-0.664073
-0.699849
-0.730397
-0.755917
-0.777005
-0.794474
-0.809182
-0.821836
-0.832971
-0.84385
-0.855445
-0.175116
-0.215846
-0.259007
-0.303394
-0.34905
-0.395568
-0.442386
-0.48878
-0.533781
-0.576331
-0.61541
-0.650244
-0.680453
-0.706098
-0.727618
-0.745683
-0.761031
-0.774349
-0.786134
-0.796714
-0.807121
-0.818151
-0.198292
-0.237414
-0.279014
-0.321264
-0.364449
-0.407919
-0.451095
-0.493166
-0.533206
-0.570307
-0.603731
-0.633068
-0.658292
-0.67973
-0.697939
-0.713562
-0.727208
-0.739381
-0.750392
-0.760407
-0.770266
-0.780639
-0.219793
-0.257211
-0.29709
-0.337043
-0.377556
-0.417742
-0.457023
-0.49456
-0.529544
-0.561296
-0.589403
-0.613798
-0.634729
-0.652675
-0.668209
-0.68188
-0.694144
-0.705334
-0.715614
-0.725029
-0.734266
-0.743906
-0.239899
-0.275555
-0.313579
-0.351086
-0.388727
-0.425406
-0.460594
-0.493488
-0.523486
-0.550185
-0.573497
-0.593626
-0.610997
-0.626132
-0.639541
-0.651648
-0.662759
-0.673065
-0.68262
-0.691386
-0.699931
-0.708772
-0.258767
-0.292605
-0.328654
-0.363585
-0.398194
-0.43121
-0.462213
-0.490517
-0.515782
-0.537899
-0.557052
-0.573632
-0.588132
-0.601038
-0.612758
-0.623582
-0.633687
-0.643156
-0.65197
-0.660041
-0.667839
-0.675834
-0.276666
-0.30873
-0.342737
-0.374983
-0.406404
-0.435636
-0.462442
-0.486325
-0.507238
-0.525333
-0.540992
-0.55469
-0.566906
-0.578043
-0.588389
-0.598118
-0.607304
-0.615957
-0.62401
-0.63135
-0.638365
-0.64549
-0.293545
-0.323775
-0.355616
-0.385081
-0.41324
-0.438709
-0.461492
-0.481317
-0.498412
-0.513125
-0.525947
-0.537358
-0.547771
-0.557486
-0.566683
-0.575441
-0.583764
-0.591611
-0.598892
-0.605484
-0.611704
-0.617955
-0.309735
-0.338253
-0.367895
-0.394502
-0.419324
-0.441073
-0.460044
-0.476205
-0.490007
-0.501916
-0.512446
-0.522028
-0.530983
-0.539511
-0.547702
-0.555567
-0.563061
-0.570115
-0.576627
-0.582472
-0.587907
-0.593307
-0.324695
-0.35132
-0.378586
-0.402352
-0.423972
-0.442328
-0.457965
-0.471054
-0.482187
-0.491876
-0.500607
-0.508739
-0.516504
-0.524019
-0.531313
-0.538348
-0.54505
-0.551335
-0.5571
-0.562223
-0.566907
-0.571498
-0.339169
-0.364115
-0.389085
-0.410014
-0.428486
-0.443649
-0.45628
-0.466715
-0.475612
-0.483469
-0.490711
-0.497614
-0.504336
-0.510931
-0.517382
-0.523623
-0.529562
-0.535106
-0.540155
-0.544593
-0.548576
-0.552417
-0.35114
-0.374183
-0.396596
-0.415075
-0.430911
-0.443603
-0.45397
-0.462459
-0.469721
-0.476221
-0.482321
-0.488237
-0.494077
-0.499858
-0.50554
-0.511042
-0.516268
-0.521121
-0.525506
-0.529317
-0.532667
-0.535835
-0.363887
-0.385143
-0.405301
-0.421323
-0.43458
-0.444929
-0.453208
-0.459946
-0.465742
-0.471013
-0.476054
-0.481028
-0.486001
-0.490968
-0.495871
-0.500628
-0.505137
-0.509306
-0.513044
-0.516254
-0.519016
-0.521585
-0.369162
-0.390284
-0.407628
-0.422306
-0.43401
-0.443205
-0.450457
-0.45633
-0.461343
-0.465881
-0.470208
-0.474476
-0.47875
-0.483028
-0.487264
-0.491381
-0.495286
-0.498888
-0.502099
-0.504828
-0.507122
-0.509198
-0.384744
-0.402633
-0.416995
-0.429205
-0.43857
-0.4458
-0.451408
-0.455944
-0.459852
-0.463447
-0.466931
-0.47041
-0.473923
-0.477455
-0.480958
-0.48436
-0.487578
-0.49053
-0.493142
-0.495339
-0.497148
-0.49874
-0.405986
-0.419835
-0.429306
-0.437583
-0.443692
-0.448629
-0.452629
-0.456081
-0.459209
-0.462175
-0.465074
-0.467952
-0.470816
-0.47365
-0.476411
-0.479048
-0.481498
-0.483706
-0.48562
-0.487196
-0.488466
-0.489564
-0.415968
-0.427753
-0.434468
-0.441007
-0.445599
-0.449522
-0.452717
-0.455534
-0.458091
-0.460505
-0.462839
-0.465129
-0.467383
-0.469588
-0.471715
-0.473724
-0.475572
-0.477214
-0.478614
-0.479744
-0.480626
-0.481352
-0.42318
-0.433252
-0.437898
-0.443164
-0.446628
-0.44979
-0.452361
-0.454668
-0.456754
-0.458708
-0.460569
-0.462364
-0.4641
-0.465772
-0.467359
-0.468835
-0.470167
-0.471325
-0.472285
-0.47303
-0.473576
-0.473983
-0.427209
-0.435782
-0.439301
-0.443738
-0.446561
-0.449235
-0.451391
-0.45332
-0.455036
-0.45661
-0.458075
-0.459456
-0.460764
-0.461996
-0.463143
-0.464183
-0.465096
-0.465859
-0.466457
-0.466882
-0.467136
-0.467258
-0.429213
-0.43643
-0.439459
-0.443264
-0.445713
-0.44803
-0.44989
-0.451532
-0.452962
-0.454242
-0.4554
-0.45646
-0.457432
-0.45832
-0.459117
-0.45981
-0.460384
-0.460822
-0.461114
-0.461259
-0.461245
-0.461089
-0.429523
-0.435591
-0.438514
-0.441864
-0.444134
-0.446219
-0.4479
-0.449353
-0.450594
-0.451672
-0.452614
-0.453444
-0.454172
-0.454804
-0.455336
-0.45576
-0.456063
-0.456235
-0.456268
-0.456167
-0.4559
-0.455465
-0.428521
-0.433737
-0.436735
-0.439802
-0.442025
-0.443995
-0.445596
-0.446955
-0.448096
-0.449059
-0.449872
-0.450555
-0.45112
-0.451572
-0.451912
-0.452132
-0.452224
-0.452179
-0.451995
-0.451675
-0.45117
-0.450459
-0.426604
-0.431278
-0.434422
-0.437371
-0.439642
-0.441603
-0.443214
-0.444564
-0.445683
-0.446608
-0.447363
-0.447969
-0.448437
-0.448774
-0.448981
-0.449053
-0.448985
-0.448769
-0.448404
-0.447897
-0.447177
-0.446207
-0.424222
-0.428626
-0.431944
-0.434905
-0.437292
-0.439327
-0.441015
-0.442421
-0.44358
-0.444524
-0.445278
-0.445861
-0.446284
-0.446556
-0.446679
-0.44665
-0.446467
-0.446123
-0.445619
-0.444964
-0.444068
-0.442878
-0.42184
-0.426181
-0.429686
-0.432749
-0.435291
-0.437452
-0.439258
-0.440763
-0.442001
-0.443003
-0.443793
-0.44439
-0.444806
-0.44505
-0.445127
-0.445038
-0.444782
-0.444354
-0.44376
-0.443008
-0.441992
-0.440648
-0.419773
-0.424188
-0.427878
-0.43109
-0.433803
-0.436114
-0.43806
-0.439686
-0.441027
-0.442112
-0.442963
-0.443601
-0.444038
-0.444284
-0.444347
-0.444232
-0.443942
-0.443478
-0.442847
-0.442062
-0.441009
-0.439614
-0.418391
-0.422955
-0.42682
-0.430194
-0.433073
-0.435536
-0.437622
-0.439373
-0.440825
-0.442004
-0.442933
-0.44363
-0.444109
-0.444381
-0.444456
-0.444344
-0.444053
-0.443592
-0.442977
-0.442225
-0.441234
-0.439929
-0.417508
-0.422227
-0.426227
-0.429735
-0.432747
-0.435336
-0.437542
-0.439405
-0.44096
-0.442231
-0.443242
-0.444006
-0.444538
-0.444848
-0.444947
-0.444851
-0.444577
-0.444145
-0.443587
-0.442936
-0.442134
-0.441114
-0.41772
-0.422593
-0.42675
-0.43041
-0.433573
-0.436307
-0.438657
-0.440666
-0.442369
-0.443793
-0.444956
-0.445871
-0.446541
-0.44697
-0.447158
-0.44711
-0.44684
-0.446375
-0.445763
-0.445078
-0.444389
-0.443771
1.24474
1.29559
1.34636
1.39698
1.447
1.49603
1.54368
1.58953
1.63321
1.67433
1.71253
1.74748
1.77889
1.80651
1.83023
1.8501
1.86647
1.88004
1.89178
1.90292
1.91632
1.93388
1.23631
1.28684
1.33697
1.38693
1.43626
1.48456
1.53143
1.57649
1.61934
1.65961
1.69695
1.73103
1.76154
1.78828
1.81113
1.83017
1.84577
1.85867
1.86989
1.88067
1.89389
1.91139
1.21589
1.26571
1.31453
1.36323
1.41124
1.45817
1.50363
1.54724
1.58859
1.62733
1.6631
1.69557
1.72447
1.74957
1.77078
1.78823
1.80235
1.81395
1.82413
1.83422
1.84706
1.86442
1.18667
1.23543
1.28228
1.32903
1.37502
1.41983
1.46309
1.50441
1.54343
1.57977
1.61309
1.64307
1.66943
1.69198
1.71066
1.72565
1.73747
1.74707
1.75566
1.76465
1.7769
1.794
1.148
1.19533
1.23961
1.28383
1.32719
1.36925
1.40967
1.44805
1.48404
1.51726
1.5474
1.57412
1.59717
1.61638
1.63173
1.64348
1.65227
1.6592
1.66566
1.67318
1.6846
1.70134
1.1016
1.14715
1.18827
1.22941
1.26954
1.30823
1.34515
1.37992
1.41218
1.44158
1.46779
1.4905
1.50948
1.52456
1.53579
1.54352
1.54853
1.55214
1.55593
1.56159
1.57193
1.58815
1.04842
1.09185
1.12931
1.16689
1.2033
1.23809
1.27097
1.30156
1.3295
1.35446
1.37611
1.39415
1.40835
1.4186
1.42498
1.42795
1.42848
1.42811
1.42868
1.43207
1.44106
1.45658
0.990208
1.03118
1.06455
1.09816
1.13039
1.16081
1.18915
1.21503
1.23811
1.25805
1.27453
1.28727
1.29605
1.30078
1.30161
1.29913
1.29448
1.28948
1.28629
1.28698
1.29432
1.30891
0.928481
0.966655
0.995618
1.02495
1.05267
1.07838
1.10182
1.12261
1.14041
1.15488
1.16573
1.17266
1.17547
1.17409
1.16874
1.16014
1.14965
1.13939
1.13185
1.12937
1.1347
1.14808
0.865207
0.900291
0.924622
0.949425
0.97233
0.993003
1.01119
1.02651
1.03862
1.0472
1.05195
1.05258
1.0489
1.04087
1.02876
1.01342
0.996465
0.980331
0.967896
0.961803
0.964753
0.976604
0.801772
0.833431
0.85307
0.873273
0.891294
0.906852
0.919686
0.929412
0.935688
0.938187
0.936599
0.930648
0.920134
0.90503
0.885675
0.863044
0.839
0.81635
0.798405
0.788157
0.788276
0.798205
0.740381
0.768321
0.783217
0.798653
0.811599
0.821828
0.829068
0.832932
0.833078
0.829177
0.820921
0.808034
0.790321
0.76777
0.74077
0.710428
0.678857
0.649245
0.625358
0.610571
0.607501
0.615089
0.681395
0.705279
0.715859
0.726804
0.734972
0.740174
0.742112
0.740386
0.734638
0.724524
0.709718
0.689929
0.664943
0.634742
0.599751
0.561198
0.521465
0.484176
0.45364
0.433696
0.426929
0.431712
0.628085
0.646928
0.653106
0.65932
0.662494
0.662418
0.658768
0.651138
0.639167
0.622507
0.600834
0.573859
0.541378
0.503392
0.460377
0.413685
0.365948
0.321177
0.284155
0.259122
0.248523
0.250024
0.578255
0.591996
0.595185
0.597332
0.59635
0.591887
0.58355
0.570911
0.553571
0.531142
0.503255
0.469573
0.429838
0.384002
0.332527
0.276852
0.219901
0.166246
0.121449
0.0904604
0.0757513
0.0740295
0.540445
0.542424
0.542625
0.540464
0.534513
0.524766
0.510763
0.4921
0.468384
0.439229
0.404274
0.363198
0.315787
0.262091
0.202756
0.139516
0.0756762
0.0161873
-0.0331662
-0.0674526
-0.0847446
-0.0891213
0.500496
0.492787
0.488014
0.478623
0.46533
0.447905
0.425885
0.398955
0.366775
0.329034
0.285455
0.235841
0.18017
0.118812
0.0528788
-0.0153607
-0.0822174
-0.142813
-0.192031
-0.226008
-0.244091
-0.251076
0.453015
0.438382
0.428811
0.412918
0.393397
0.369354
0.340483
0.306507
0.267131
0.222109
0.171246
0.114461
0.0519152
-0.0157402
-0.0870126
-0.159222
-0.22841
-0.289784
-0.338763
-0.372353
-0.39105
-0.400275
0.402731
0.3823
0.3675
0.345337
0.31981
0.28944
0.254171
0.213721
0.167849
0.116366
0.0591515
-0.00375878
-0.0720112
-0.144662
-0.219842
-0.294512
-0.36455
-0.425386
-0.47308
-0.505547
-0.524294
-0.535076
0.350464
0.324941
0.304869
0.276929
0.245788
0.209575
0.16847
0.122174
0.0705113
0.0133555
-0.0493225
-0.117342
-0.190121
-0.266391
-0.343916
-0.419377
-0.488652
-0.547573
-0.59298
-0.623705
-0.642091
-0.653947
0.297301
0.267338
0.242192
0.209079
0.172846
0.131447
0.0852324
0.0338946
-0.0226724
-0.0845303
-0.151603
-0.223542
-0.299511
-0.377919
-0.456212
-0.530914
-0.59806
-0.654042
-0.696523
-0.725181
-0.74298
-0.755579
0.244429
0.210637
0.180783
0.143145
0.102423
0.0565587
0.00601697
-0.0495049
-0.110041
-0.175581
-0.245926
-0.320539
-0.398316
-0.477364
-0.554893
-0.627404
-0.691257
-0.743504
-0.782639
-0.809058
-0.826143
-0.839236
0.192661
0.155645
0.121579
0.0801169
0.0355893
-0.0139495
-0.0679775
-0.126772
-0.190296
-0.258453
-0.330905
-0.406905
-0.485086
-0.563295
-0.638609
-0.70766
-0.76727
-0.815223
-0.850782
-0.874923
-0.891242
-0.904655
0.142999
0.103355
0.0656616
0.021087
-0.0265245
-0.0789312
-0.135592
-0.19674
-0.262265
-0.331971
-0.405358
-0.481464
-0.558674
-0.634645
-0.706446
-0.770986
-0.825662
-0.868996
-0.900935
-0.922865
-0.938427
-0.952032
0.0957618
0.0540746
0.0133945
-0.0335648
-0.0835038
-0.13795
-0.19637
-0.258936
-0.325459
-0.395626
-0.468764
-0.543694
-0.618596
-0.691029
-0.758189
-0.817394
-0.866681
-0.905282
-0.933695
-0.953554
-0.968397
-0.982088
0.0517371
0.00857163
-0.0344334
-0.0830769
-0.13461
-0.190311
-0.249663
-0.312764
-0.379336
-0.448931
-0.520695
-0.593248
-0.664627
-0.732405
-0.794037
-0.847353
-0.891058
-0.925009
-0.950111
-0.968093
-0.982271
-0.995953
0.0105533
-0.0335646
-0.0782376
-0.127882
-0.180282
-0.23646
-0.295922
-0.358676
-0.424344
-0.492331
-0.561601
-0.630616
-0.697351
-0.759519
-0.814955
-0.862073
-0.90021
-0.929739
-0.951816
-0.968131
-0.981688
-0.995255
-0.0270148
-0.0715812
-0.11729
-0.167314
-0.219923
-0.275891
-0.334737
-0.396368
-0.460289
-0.525748
-0.591548
-0.656044
-0.717255
-0.773153
-0.822051
-0.86296
-0.895782
-0.921262
-0.940664
-0.955528
-0.968498
-0.981836
-0.0621832
-0.106766
-0.152932
-0.202753
-0.254943
-0.310034
-0.367547
-0.427271
-0.488585
-0.550584
-0.611948
-0.671009
-0.72595
-0.775114
-0.817352
-0.852244
-0.880141
-0.90201
-0.919089
-0.932691
-0.945068
-0.958033
-0.0935701
-0.137748
-0.183834
-0.232942
-0.284176
-0.337827
-0.393412
-0.450585
-0.508596
-0.566411
-0.622644
-0.675707
-0.72405
-0.766464
-0.802332
-0.831714
-0.855268
-0.874037
-0.889129
-0.90159
-0.913278
-0.925605
-0.0712871
-0.115597
-0.161927
-0.211344
-0.262973
-0.317073
-0.373152
-0.430834
-0.489338
-0.547589
-0.604168
-0.657461
-0.70591
-0.748319
-0.784093
-0.813318
-0.836674
-0.855221
-0.870079
-0.882304
-0.893736
-0.905778
-0.0397794
-0.084504
-0.130915
-0.181021
-0.233571
-0.289062
-0.347015
-0.40719
-0.468939
-0.531318
-0.592968
-0.652192
-0.707161
-0.756229
-0.798276
-0.832917
-0.860537
-0.882124
-0.898928
-0.912267
-0.924368
-0.93702
-0.0047152
-0.0494299
-0.0953921
-0.145678
-0.198616
-0.25494
-0.314172
-0.376197
-0.440496
-0.506279
-0.572311
-0.636909
-0.698074
-0.753786
-0.802388
-0.842939
-0.875386
-0.900507
-0.919582
-0.934153
-0.946829
-0.959838
0.0324753
-0.0117975
-0.0567415
-0.106633
-0.159337
-0.215832
-0.275631
-0.338726
-0.404716
-0.472974
-0.542426
-0.611489
-0.678115
-0.740014
-0.795053
-0.841699
-0.879351
-0.908428
-0.930114
-0.946101
-0.95935
-0.97258
0.0729984
0.0296736
-0.0136282
-0.0625097
-0.114332
-0.170319
-0.229968
-0.293364
-0.36021
-0.430033
-0.501937
-0.574501
-0.645725
-0.713172
-0.774321
-0.82706
-0.870167
-0.903565
-0.928201
-0.945814
-0.959672
-0.973019
0.116074
0.0742215
0.0332086
-0.0139906
-0.0642136
-0.118927
-0.177616
-0.240442
-0.307203
-0.377563
-0.450815
-0.525733
-0.600457
-0.672524
-0.739141
-0.797683
-0.846269
-0.884216
-0.912082
-0.931525
-0.946037
-0.959404
0.162084
0.122267
0.0841961
0.0393688
-0.00853227
-0.0612004
-0.118117
-0.179505
-0.245246
-0.315126
-0.388615
-0.464707
-0.541741
-0.617341
-0.688574
-0.752396
-0.806289
-0.848877
-0.88019
-0.901655
-0.916877
-0.930176
0.210272
0.173068
0.138573
0.0968317
0.0519966
0.00218583
-0.0520997
-0.111131
-0.174866
-0.243195
-0.315755
-0.391759
-0.469792
-0.547658
-0.622417
-0.690734
-0.749512
-0.796647
-0.831509
-0.855138
-0.871109
-0.884244
0.260358
0.226356
0.196014
0.158058
0.116999
0.0708366
0.0200191
-0.0357546
-0.0965154
-0.162243
-0.23272
-0.307374
-0.385056
-0.463821
-0.54085
-0.612655
-0.675669
-0.727058
-0.765442
-0.791309
-0.808043
-0.820893
0.311402
0.281192
0.255498
0.222012
0.185401
0.143663
0.0971378
0.0455154
-0.0113077
-0.0733883
-0.140635
-0.212673
-0.288621
-0.366837
-0.444722
-0.518795
-0.585141
-0.640264
-0.681967
-0.710046
-0.727498
-0.739897
0.362651
0.336827
0.316146
0.287766
0.256195
0.21959
0.178125
0.131495
0.0795271
0.0220963
-0.0408165
-0.109009
-0.181862
-0.258054
-0.335298
-0.410249
-0.478813
-0.53692
-0.581557
-0.611695
-0.629748
-0.641461
0.412995
0.392186
0.376722
0.35404
0.328024
0.297197
0.261505
0.220659
0.174417
0.12259
0.0650649
0.00189159
-0.0665449
-0.139253
-0.214307
-0.288624
-0.35809
-0.418208
-0.465179
-0.497079
-0.515522
-0.526228
0.461406
0.446287
0.436011
0.419512
0.399436
0.374866
0.3455
0.311054
0.271232
0.225784
0.174521
0.11737
0.0545188
-0.0133415
-0.0846608
-0.156705
-0.225497
-0.286296
-0.334645
-0.36772
-0.386159
-0.39539
0.507127
0.498749
0.493238
0.483157
0.469237
0.451216
0.428628
0.401151
0.368444
0.33019
0.286117
0.236031
0.179928
0.118214
0.0520513
-0.0162286
-0.0828978
-0.1431
-0.191824
-0.22537
-0.243262
-0.250347
0.545754
0.546834
0.546262
0.543333
0.536663
0.526234
0.511573
0.49227
0.467929
0.43816
0.4026
0.36093
0.312945
0.258722
0.198952
0.135433
0.0715317
0.0122093
-0.0368255
-0.0707981
-0.0879855
-0.0925695
0.581772
0.594381
0.596783
0.59817
0.596436
0.591249
0.582204
0.568867
0.550834
0.527714
0.499137
0.464766
0.42435
0.377864
0.325811
0.269692
0.212494
0.158816
0.114161
0.0833455
0.0686371
0.0666155
0.62941
0.647061
0.652458
0.657899
0.660293
0.659465
0.655069
0.646697
0.633982
0.616575
0.594148
0.566416
0.533181
0.494464
0.450779
0.403533
0.355413
0.310455
0.273402
0.248387
0.237677
0.238805
0.680749
0.70346
0.713242
0.723405
0.730773
0.735194
0.736351
0.733838
0.727297
0.716378
0.700756
0.680141
0.654324
0.623309
0.587553
0.548336
0.508093
0.470471
0.439754
0.419697
0.412722
0.417073
0.737819
0.764635
0.778723
0.793376
0.805513
0.814945
0.821383
0.824434
0.823755
0.819014
0.809901
0.796143
0.777551
0.754129
0.7263
0.695214
0.663032
0.632968
0.608778
0.593769
0.590418
0.597538
0.797572
0.828197
0.847034
0.866458
0.883672
0.898427
0.910447
0.919344
0.924775
0.926409
0.923936
0.917083
0.905654
0.88964
0.869407
0.845969
0.821235
0.798042
0.779695
0.769143
0.76893
0.778376
0.859648
0.893788
0.917328
0.941367
0.96348
0.98336
1.00074
1.01523
1.0265
1.03421
1.03807
1.03779
1.03319
1.02424
1.01123
0.995052
0.977358
0.960617
0.947715
0.941261
0.943849
0.955223
0.921938
0.959271
0.987474
1.01608
1.04303
1.06797
1.09062
1.1106
1.12758
1.1412
1.15117
1.15721
1.15911
1.15682
1.15058
1.14112
1.12988
1.11898
1.11093
1.10806
1.11301
1.12594
0.983076
1.02331
1.05596
1.08888
1.12039
1.15008
1.17767
1.20279
1.22507
1.2442
1.25985
1.27173
1.27965
1.2835
1.28346
1.28015
1.27476
1.26912
1.2654
1.26569
1.27266
1.28683
1.04112
1.08392
1.12072
1.15767
1.19341
1.22753
1.25972
1.2896
1.31682
1.34102
1.36189
1.37914
1.39253
1.40196
1.40753
1.40972
1.40954
1.40854
1.40861
1.41161
1.42026
1.43539
1.09456
1.13958
1.18011
1.22069
1.26023
1.29832
1.33462
1.36875
1.40036
1.42908
1.4546
1.4766
1.49485
1.5092
1.5197
1.52672
1.53108
1.53411
1.53743
1.54273
1.55277
1.56866
1.14162
1.18852
1.2323
1.27604
1.3189
1.36045
1.40033
1.43817
1.4736
1.50624
1.53578
1.56189
1.58432
1.60289
1.61762
1.62875
1.63698
1.6434
1.64945
1.65666
1.66781
1.68427
1.1813
1.22972
1.27618
1.32254
1.36813
1.41252
1.45536
1.49624
1.53481
1.57068
1.60352
1.633
1.65886
1.68089
1.69906
1.71356
1.72492
1.7341
1.74235
1.75108
1.76311
1.78
1.21183
1.26141
1.30995
1.35836
1.40608
1.45271
1.49786
1.54113
1.58216
1.62055
1.65597
1.68808
1.7166
1.74132
1.76216
1.77924
1.79302
1.80432
1.81425
1.82414
1.83682
1.85403
1.23379
1.28417
1.33413
1.38391
1.43306
1.48117
1.52786
1.57272
1.61536
1.65543
1.69255
1.7264
1.75669
1.7832
1.80582
1.82464
1.84003
1.85274
1.8638
1.87446
1.88758
1.90499
1.24388
1.29468
1.34539
1.39595
1.44592
1.49489
1.54247
1.58826
1.63187
1.67292
1.71105
1.74592
1.77725
1.80479
1.82843
1.84823
1.86453
1.87804
1.88973
1.90082
1.91419
1.93172
-0.100504
-0.129128
-0.154237
-0.178073
-0.20025
-0.221014
-0.24049
-0.258914
-0.276228
-0.292736
-0.307924
-0.32251
-0.334568
-0.347293
-0.352758
-0.368343
-0.390023
-0.400483
-0.408047
-0.412299
-0.414435
-0.414823
-0.413849
-0.411909
-0.409455
-0.406959
-0.404761
-0.403224
-0.402235
-0.402283
-0.143934
-0.171368
-0.19506
-0.217274
-0.237735
-0.256727
-0.274378
-0.291027
-0.30651
-0.321321
-0.334641
-0.347595
-0.357793
-0.368813
-0.37407
-0.386513
-0.404265
-0.412552
-0.418351
-0.421097
-0.421884
-0.421124
-0.419294
-0.416805
-0.414077
-0.411518
-0.409399
-0.408023
-0.4072
-0.407422
-0.189643
-0.216081
-0.238486
-0.259147
-0.277897
-0.295042
-0.310727
-0.325343
-0.338671
-0.351305
-0.36227
-0.372969
-0.380635
-0.389451
-0.391893
-0.401416
-0.414314
-0.419791
-0.423444
-0.424972
-0.425195
-0.42428
-0.422496
-0.420141
-0.417584
-0.415216
-0.413289
-0.412101
-0.411418
-0.411818
-0.237854
-0.262698
-0.28325
-0.301791
-0.318256
-0.332964
-0.34608
-0.35802
-0.368576
-0.37837
-0.386511
-0.394403
-0.399625
-0.406007
-0.407051
-0.414116
-0.422991
-0.426626
-0.428937
-0.429601
-0.429178
-0.427798
-0.425726
-0.423248
-0.420705
-0.418444
-0.416673
-0.41566
-0.41512
-0.41569
-0.288019
-0.310987
-0.329395
-0.345485
-0.359294
-0.371143
-0.381233
-0.389994
-0.397294
-0.403761
-0.408705
-0.413455
-0.416031
-0.419828
-0.419276
-0.423984
-0.42949
-0.431531
-0.432653
-0.432629
-0.431801
-0.430222
-0.428089
-0.425655
-0.423228
-0.421128
-0.419537
-0.418702
-0.418304
-0.41904
-0.340172
-0.36075
-0.376478
-0.389544
-0.400085
-0.408437
-0.414868
-0.419844
-0.423376
-0.426115
-0.427649
-0.429185
-0.429256
-0.43068
-0.428925
-0.431625
-0.434706
-0.435663
-0.435978
-0.435442
-0.434245
-0.432427
-0.430174
-0.42773
-0.425379
-0.423411
-0.421979
-0.421306
-0.421042
-0.421938
-0.393791
-0.411434
-0.423912
-0.433358
-0.440019
-0.44428
-0.446522
-0.447289
-0.446777
-0.445675
-0.443837
-0.442323
-0.440085
-0.439377
-0.436555
-0.437563
-0.438925
-0.43903
-0.438688
-0.437718
-0.436213
-0.434208
-0.431873
-0.429437
-0.427165
-0.425322
-0.424037
-0.423515
-0.423377
-0.424431
-0.448367
-0.462392
-0.470934
-0.476078
-0.478211
-0.477828
-0.475465
-0.471784
-0.467176
-0.462362
-0.457398
-0.453174
-0.44894
-0.446432
-0.442715
-0.442339
-0.442533
-0.441971
-0.441097
-0.439739
-0.43794
-0.435743
-0.433312
-0.430867
-0.428655
-0.426917
-0.42576
-0.425372
-0.425353
-0.426563
-0.503004
-0.512652
-0.516541
-0.516738
-0.513818
-0.508437
-0.501314
-0.493241
-0.484763
-0.476596
-0.468905
-0.462387
-0.456471
-0.452457
-0.447936
-0.446418
-0.445774
-0.444623
-0.443266
-0.441531
-0.439443
-0.437052
-0.434519
-0.432054
-0.429885
-0.428231
-0.427184
-0.426915
-0.427004
-0.428373
-0.556552
-0.561053
-0.559637
-0.554397
-0.546125
-0.53567
-0.523928
-0.511783
-0.499866
-0.488833
-0.478867
-0.470467
-0.463158
-0.457883
-0.452619
-0.450132
-0.448824
-0.447111
-0.445286
-0.443167
-0.440782
-0.438187
-0.435538
-0.433036
-0.430889
-0.429298
-0.428339
-0.428171
-0.428359
-0.429888
-0.607622
-0.606334
-0.599175
-0.588289
-0.574692
-0.559415
-0.543472
-0.527779
-0.512969
-0.499591
-0.487781
-0.477854
-0.46938
-0.463025
-0.457045
-0.453698
-0.451787
-0.449505
-0.447203
-0.444686
-0.441991
-0.439178
-0.436399
-0.433839
-0.431693
-0.430143
-0.429251
-0.429167
-0.42944
-0.43113
-0.654795
-0.647364
-0.634363
-0.617987
-0.599435
-0.579864
-0.56033
-0.541707
-0.524563
-0.509315
-0.496024
-0.484845
-0.475372
-0.468065
-0.461382
-0.457238
-0.454717
-0.451846
-0.449047
-0.446114
-0.443094
-0.44005
-0.437122
-0.434485
-0.432318
-0.430785
-0.429939
-0.42992
-0.430265
-0.432112
-0.696873
-0.683355
-0.664814
-0.64346
-0.620602
-0.597442
-0.575001
-0.554057
-0.535078
-0.518345
-0.503847
-0.491615
-0.481257
-0.473081
-0.465706
-0.460798
-0.457628
-0.454146
-0.450828
-0.447464
-0.444106
-0.440815
-0.437722
-0.434989
-0.432778
-0.43124
-0.430418
-0.430446
-0.430847
-0.43284
-0.733127
-0.714012
-0.690594
-0.665038
-0.638675
-0.612681
-0.587986
-0.56525
-0.54483
-0.5269
-0.511385
-0.498233
-0.487066
-0.478079
-0.470025
-0.464371
-0.460504
-0.456393
-0.452541
-0.448736
-0.445031
-0.44148
-0.438206
-0.435356
-0.433081
-0.431517
-0.430699
-0.430757
-0.431199
-0.433316
-0.763416
-0.73955
-0.712154
-0.683289
-0.654243
-0.626111
-0.599714
-0.575594
-0.554022
-0.535088
-0.51868
-0.504693
-0.492765
-0.483008
-0.474296
-0.467912
-0.463307
-0.458562
-0.454169
-0.44992
-0.445862
-0.442043
-0.438574
-0.43559
-0.433231
-0.431622
-0.430792
-0.430863
-0.431332
-0.433544
-0.788161
-0.760577
-0.730176
-0.698874
-0.667874
-0.638175
-0.610495
-0.585284
-0.562749
-0.542932
-0.525708
-0.510938
-0.498284
-0.487789
-0.478449
-0.471352
-0.465985
-0.460613
-0.455684
-0.450997
-0.446588
-0.442497
-0.438821
-0.435688
-0.433227
-0.431557
-0.430701
-0.430776
-0.431262
-0.433527
-0.80818
-0.777926
-0.745419
-0.712422
-0.680045
-0.649201
-0.620525
-0.59441
-0.571029
-0.550401
-0.532402
-0.516883
-0.503529
-0.492327
-0.482391
-0.474611
-0.468478
-0.462502
-0.457056
-0.451946
-0.447194
-0.442829
-0.43894
-0.435643
-0.433065
-0.43132
-0.430429
-0.430504
-0.431007
-0.433281
-0.82448
-0.792469
-0.758587
-0.724457
-0.691111
-0.659399
-0.629906
-0.602997
-0.578832
-0.557432
-0.538683
-0.52244
-0.508407
-0.496529
-0.486034
-0.477607
-0.470729
-0.464187
-0.458253
-0.452746
-0.447664
-0.44303
-0.43892
-0.435449
-0.43274
-0.430909
-0.42998
-0.430056
-0.430588
-0.432832
-0.837992
-0.804931
-0.770195
-0.735309
-0.701252
-0.668838
-0.638632
-0.610988
-0.586078
-0.56393
-0.544454
-0.527509
-0.512824
-0.500307
-0.48929
-0.480266
-0.47269
-0.465631
-0.459253
-0.45338
-0.44799
-0.443093
-0.438761
-0.435106
-0.432254
-0.430329
-0.42936
-0.429449
-0.430037
-0.432229
-0.849502
-0.815864
-0.780592
-0.745163
-0.710532
-0.677498
-0.646625
-0.618279
-0.592646
-0.569775
-0.549594
-0.531978
-0.516675
-0.503562
-0.492068
-0.482512
-0.474312
-0.466803
-0.460038
-0.453841
-0.448168
-0.443021
-0.438467
-0.434621
-0.431616
-0.429588
-0.428581
-0.4287
-0.429387
-0.431547
-0.860519
-0.826529
-0.79081
-0.754863
-0.719642
-0.68595
-0.654362
-0.625264
-0.598862
-0.575228
-0.554313
-0.536007
-0.520078
-0.506381
-0.494419
-0.484374
-0.475631
-0.46773
-0.460625
-0.454133
-0.448189
-0.442786
-0.437991
-0.433925
-0.430737
-0.428583
-0.427531
-0.427707
-0.42858
-0.430852
-0.872204
-0.837895
-0.801645
-0.765078
-0.729164
-0.694711
-0.662314
-0.632377
-0.60513
-0.580668
-0.55896
-0.539915
-0.523319
-0.509023
-0.496568
-0.486033
-0.476786
-0.468507
-0.461079
-0.454299
-0.448074
-0.44239
-0.437314
-0.432983
-0.429567
-0.42725
-0.426137
-0.426395
-0.427548
-0.430222
0.210273
0.210263
0.210243
0.210216
0.210191
0.210171
0.210163
0.210168
0.210189
0.210224
0.210271
0.210326
0.210385
0.210445
0.210503
0.210558
0.210608
0.210656
0.210701
0.210745
0.210791
0.21084
0.210895
0.210959
0.21075
0.210744
0.210727
0.210704
0.210681
0.210663
0.210655
0.210659
0.210677
0.210706
0.210745
0.210788
0.210832
0.210874
0.210912
0.210945
0.210971
0.210993
0.211012
0.211029
0.211047
0.211069
0.211097
0.211135
0.211241
0.211239
0.211224
0.211205
0.211186
0.211171
0.211164
0.211167
0.211182
0.211205
0.211234
0.211264
0.211292
0.211315
0.21133
0.211337
0.211337
0.21133
0.211319
0.211306
0.211294
0.211285
0.211283
0.211291
0.211743
0.211745
0.211734
0.21172
0.211705
0.211694
0.211689
0.211693
0.211704
0.21172
0.211739
0.211755
0.211764
0.211765
0.211756
0.211735
0.211705
0.211667
0.211623
0.211576
0.21153
0.211487
0.211451
0.211426
0.212256
0.212261
0.212254
0.212247
0.212237
0.212231
0.212229
0.212233
0.212241
0.212251
0.212259
0.212259
0.212249
0.212226
0.212189
0.212139
0.212076
0.212003
0.211922
0.211839
0.211755
0.211675
0.211601
0.21154
0.212776
0.212784
0.212783
0.212782
0.21278
0.212779
0.212782
0.212787
0.212793
0.212796
0.212792
0.212776
0.212745
0.212696
0.21263
0.212546
0.212447
0.212337
0.212217
0.212093
0.211968
0.211847
0.211733
0.211632
0.2133
0.213311
0.213316
0.213323
0.213329
0.213337
0.213345
0.213353
0.213357
0.213353
0.213337
0.213304
0.21325
0.213174
0.213076
0.212957
0.21282
0.212668
0.212506
0.212338
0.212169
0.212004
0.211845
0.211701
0.213825
0.213838
0.21385
0.213866
0.213882
0.213899
0.213914
0.213926
0.213929
0.213919
0.213891
0.213839
0.213762
0.213657
0.213525
0.213368
0.21319
0.212995
0.212788
0.212574
0.212357
0.212143
0.211937
0.211746
0.214345
0.214359
0.214379
0.214405
0.214433
0.214461
0.214485
0.214502
0.214505
0.21449
0.214449
0.214379
0.214277
0.214142
0.213974
0.213778
0.213557
0.213316
0.213061
0.212797
0.21253
0.212265
0.212009
0.211767
0.214854
0.214868
0.214897
0.214934
0.214976
0.215016
0.215051
0.215075
0.21508
0.215059
0.215007
0.214918
0.214791
0.214624
0.21442
0.214183
0.213917
0.213628
0.213323
0.213007
0.212687
0.212369
0.212059
0.211764
0.215345
0.215357
0.215397
0.215446
0.215503
0.215558
0.215606
0.215638
0.215645
0.215621
0.215558
0.215451
0.215298
0.215099
0.214858
0.214578
0.214266
0.213928
0.213571
0.213202
0.212827
0.212453
0.212086
0.211736
0.215809
0.215819
0.215869
0.215932
0.216006
0.216078
0.216141
0.216182
0.216194
0.216167
0.216094
0.215969
0.21579
0.21556
0.21528
0.214958
0.214599
0.214211
0.213801
0.213378
0.212947
0.212516
0.212091
0.211683
0.216238
0.216244
0.216306
0.216382
0.216475
0.216566
0.216645
0.216699
0.216717
0.216688
0.216605
0.216463
0.21626
0.215998
0.215681
0.215316
0.21491
0.214472
0.21401
0.213532
0.213044
0.212556
0.212072
0.211605
0.21662
0.21662
0.216694
0.216786
0.216899
0.21701
0.217108
0.217175
0.217201
0.217172
0.217081
0.216923
0.216696
0.216403
0.21605
0.215643
0.215192
0.214705
0.214191
0.213659
0.213116
0.212571
0.212029
0.211502
0.216944
0.216936
0.217023
0.21713
0.217265
0.217398
0.217516
0.217599
0.217633
0.217606
0.217509
0.217336
0.217087
0.216764
0.216376
0.215929
0.215434
0.214901
0.214338
0.213755
0.213158
0.212557
0.211958
0.211374
0.217197
0.217179
0.217279
0.217402
0.21756
0.217715
0.217855
0.217955
0.218
0.217976
0.217873
0.217687
0.217417
0.217068
0.216646
0.216163
0.215627
0.21505
0.214442
0.213811
0.213165
0.212512
0.211859
0.211219
0.217365
0.217335
0.217448
0.217586
0.217768
0.217947
0.218109
0.218227
0.218284
0.218264
0.218158
0.21796
0.217672
0.217298
0.216846
0.216329
0.215757
0.215142
0.214493
0.213819
0.213128
0.212429
0.211727
0.211036
0.217434
0.217389
0.217515
0.217667
0.217873
0.218076
0.218261
0.218398
0.218468
0.218454
0.218345
0.218137
0.217832
0.217436
0.216959
0.216413
0.21581
0.215162
0.214478
0.213769
0.213041
0.212302
0.211558
0.210823
0.217389
0.217326
0.217464
0.21763
0.217859
0.218085
0.218294
0.218449
0.218533
0.218524
0.218414
0.218198
0.217879
0.217465
0.216966
0.216396
0.215768
0.215094
0.214384
0.213648
0.212891
0.212122
0.211346
0.210576
0.217213
0.217129
0.217279
0.217457
0.217708
0.217957
0.218188
0.218362
0.218458
0.218455
0.218345
0.218122