/*--------------------------------*- C++ -*----------------------------------*\
| =========                 |                                                 |
| \\      /  F ield         | OpenFOAM Extend Project: Open source CFD        |
|  \\    /   O peration     | Version:  1.6-ext                               |
|   \\  /    A nd           | Web:      www.extend-project.de                 |
|    \\/     M anipulation  |                                                 |
\*---------------------------------------------------------------------------*/
FoamFile
{
    version     2.0;
    format      ascii;
    class       surfaceScalarField;
    location    "0.65";
    object      phi;
}
// * * * * * * * * * * * * * * * * * * * * * * * * * * * * * * * * * * * * * //

dimensions      [0 3 -1 0 0 0 0];

internalField   nonuniform List<scalar> 
41420
(
-0.000126712
0.00039743
-0.000398147
0.000127429
-0.000125535
0.000378514
-0.00037969
-0.000123932
0.000359938
-0.000361541
-0.000121902
0.000341604
-0.000343634
-0.000119383
0.000323513
-0.000326032
-0.000116226
0.000305452
-0.000308609
-0.000112192
0.000287073
-0.000291107
-0.000106987
0.000267903
-0.000273108
-0.000100337
0.000247457
-0.000254108
-9.20835e-05
0.000225387
-0.000233641
-8.22804e-05
0.000201634
-0.000211437
-7.12346e-05
0.00017652
-0.000187566
-5.94755e-05
0.000150731
-0.00016249
-4.7662e-05
0.000125189
-0.000137003
-3.64536e-05
0.000100866
-0.000112075
-2.64015e-05
7.85984e-05
-8.86505e-05
-1.78797e-05
5.89677e-05
-6.74895e-05
-1.1074e-05
4.22627e-05
-4.90685e-05
-6.00683e-06
2.85069e-05
-3.35741e-05
-2.58469e-06
1.75244e-05
-2.09465e-05
-6.45932e-07
9.0139e-06
-1.09527e-05
2.6169e-06
-3.26284e-06
-0.00013448
0.000396544
0.000135365
-0.000133113
0.000377146
-0.00013128
0.000358105
-0.000128947
0.000339271
-0.000125999
0.000320565
-0.000122225
0.000301678
-0.000117339
0.000282187
-0.000111037
0.000261601
-0.000103097
0.000239517
-9.34765e-05
0.000215767
-8.2387e-05
0.000190545
-7.02888e-05
0.000164422
-5.78192e-05
0.000138262
-4.56697e-05
0.00011304
-3.44604e-05
8.9657e-05
-2.46518e-05
6.87898e-05
-1.65107e-05
5.08266e-05
-1.01235e-05
3.58755e-05
-5.4379e-06
2.38214e-05
-2.31343e-06
1.43999e-05
-5.6553e-07
7.26599e-06
2.05137e-06
-0.000149327
0.000394993
0.000150879
-0.000147267
0.000375085
-0.000144688
0.000355527
-0.000141502
0.000336085
-0.000137525
0.000316589
-0.000132479
0.000296632
-0.000126041
0.000275749
-0.000117936
0.000253496
-0.000108042
0.000229622
-9.64833e-05
0.000204209
-8.36588e-05
0.00017772
-7.01872e-05
0.000150951
-5.67912e-05
0.000124866
-4.41612e-05
0.00010041
-3.28451e-05
7.83409e-05
-2.31925e-05
5.91372e-05
-1.53537e-05
4.29878e-05
-9.3163e-06
2.98381e-05
-4.95644e-06
1.94615e-05
-2.08851e-06
1.1532e-05
-5.04466e-07
5.68195e-06
1.54691e-06
-0.000163573
0.0003928
0.000165766
-0.000160819
0.000372332
-0.000157448
0.000352156
-0.000153296
0.000331932
-0.000148103
0.000311396
-0.000141536
0.000290065
-0.000133277
0.00026749
-0.000123135
0.000243354
-0.000111154
0.000217641
-9.76647e-05
0.00019072
-8.32587e-05
0.000163314
-6.86779e-05
0.00013637
-5.4674e-05
0.000110862
-4.18783e-05
8.76142e-05
-3.07251e-05
6.71876e-05
-2.1434e-05
4.98461e-05
-1.40388e-05
3.55926e-05
-8.43851e-06
2.42379e-05
-4.45156e-06
1.54746e-05
-1.86087e-06
8.94129e-06
-4.45521e-07
4.26661e-06
1.10139e-06
-0.000176496
0.000390014
0.000179282
-0.000173053
0.000368889
-0.000168828
0.000347931
-0.000163569
0.000326673
-0.000156944
0.000304771
-0.0001486
0.000281721
-0.000138286
0.000257176
-0.00012597
0.000231038
-0.000111917
0.000203588
-9.66808e-05
0.000175484
-8.10143e-05
0.000147648
-6.57206e-05
0.000121076
-5.15096e-05
9.66507e-05
-3.88999e-05
7.50045e-05
-2.81835e-05
5.64713e-05
-1.9446e-05
4.11085e-05
-1.26153e-05
2.8762e-05
-7.51965e-06
1.91422e-05
-3.93728e-06
1.18922e-05
-1.63431e-06
6.63832e-06
-3.8817e-07
3.02046e-06
7.13218e-07
-0.000188012
0.000386657
0.000191369
-0.000183834
0.000364711
-0.000178617
0.000342714
-0.000172022
0.000320078
-0.000163679
0.000296427
-0.00015328
0.000271322
-0.000140723
0.00024462
-0.000126207
0.000216521
-0.000110245
0.000187626
-9.35921e-05
0.000158831
-7.70972e-05
0.000131153
-6.15439e-05
0.000105523
-4.75335e-05
8.26403e-05
-3.54325e-05
6.29035e-05
-2.53815e-05
4.64202e-05
-1.73419e-05
3.30689e-05
-1.11557e-05
2.25758e-05
-6.60085e-06
1.45873e-05
-3.4335e-06
8.72484e-06
-1.41627e-06
4.62108e-06
-3.33902e-07
1.9381e-06
3.79315e-07
-0.000197906
0.000382688
0.000201875
-0.000192861
0.000359666
-0.000186425
0.000336278
-0.000178194
0.000311847
-0.000167824
0.000286057
-0.000155143
0.000258641
-0.000140284
0.00022976
-0.000123716
0.000199953
-0.000106191
0.000170101
-8.85972e-05
0.000141237
-7.17875e-05
0.000114343
-5.64455e-05
9.01808e-05
-4.30135e-05
6.92083e-05
-3.16904e-05
5.15804e-05
-2.24745e-05
3.72043e-05
-1.52251e-05
2.58196e-05
-9.72285e-06
1.70735e-05
-5.7167e-06
1.05812e-05
-2.9567e-06
5.96485e-06
-1.21284e-06
2.87722e-06
-2.83985e-07
1.00925e-06
9.53298e-08
-0.000205955
0.000378016
0.000210628
-0.00019983
0.000353541
-0.000191868
0.000328316
-0.000181664
0.000301644
-0.000168995
0.000273388
-0.000153925
0.000243571
-0.000136883
0.000212718
-0.000118612
0.000181681
-0.000100032
0.000151522
-8.20645e-05
0.00012327
-6.54729e-05
9.77516e-05
-5.07757e-05
7.54836e-05
-3.82326e-05
5.66652e-05
-2.78819e-05
4.12298e-05
-1.96039e-05
2.89263e-05
-1.31846e-05
1.94002e-05
-8.36808e-06
1.22571e-05
-4.89394e-06
7.10704e-06
-2.51894e-06
3.58984e-06
-1.02828e-06
1.38657e-06
-2.39242e-07
2.20203e-07
-1.43912e-07
-0.000211784
0.000372404
0.000217396
-0.000204264
0.000346021
-0.000194422
0.000318474
-0.000181955
0.000289176
-0.000166863
0.000258296
-0.000149518
0.000226227
-0.000130655
0.000193855
-0.000111225
0.000162251
-9.22143e-05
0.000132511
-7.44677e-05
0.000105524
-5.85834e-05
8.18672e-05
-4.48838e-05
6.1784e-05
-3.345e-05
4.52314e-05
-2.41854e-05
3.19652e-05
-1.68842e-05
2.16251e-05
-1.12884e-05
1.38043e-05
-7.12886e-06
8.09756e-06
-4.15109e-06
4.12927e-06
-2.12801e-06
1.56676e-06
-8.65065e-07
1.23623e-07
-2.00051e-07
-4.44811e-07
-3.43964e-07
-0.000215035
0.000365613
0.000221826
-0.000205779
0.000336765
-0.000193746
0.000306441
-0.000178849
0.000274279
-0.000161415
0.000240863
-0.000142152
0.000206963
-0.000122037
0.00017374
-0.000102119
0.000142334
-8.33276e-05
0.000113719
-6.63423e-05
8.85383e-05
-5.1555e-05
6.70799e-05
-3.9094e-05
4.9323e-05
-2.88891e-05
3.50266e-05
-2.07447e-05
2.38208e-05
-1.44021e-05
1.52826e-05
-9.58564e-06
8.98781e-06
-6.03089e-06
4.5428e-06
-3.50023e-06
1.59862e-06
-1.78875e-06
-1.44721e-07
-7.24624e-07
-9.40507e-07
-1.66625e-07
-1.00281e-06
-5.10588e-07
-0.000215161
0.000357194
0.000223579
-0.000203826
0.000325431
-0.000189424
0.000292039
-0.000172188
0.000257043
-0.000152792
0.000221467
-0.000132226
0.000186397
-0.000111596
0.00015311
-9.19146e-05
0.000122652
-7.39502e-05
9.57548e-05
-5.81682e-05
7.27563e-05
-4.47503e-05
5.3662e-05
-3.36592e-05
3.82318e-05
-2.47141e-05
2.60815e-05
-1.76591e-05
1.67658e-05
-1.22138e-05
9.83722e-06
-8.10564e-06
4.87967e-06
-5.08795e-06
1.52511e-06
-2.94698e-06
-5.42355e-07
-1.50287e-06
-1.58883e-06
-6.07136e-07
-1.83624e-06
-1.38824e-07
-1.47112e-06
-6.49412e-07
-0.000212056
0.000347005
0.000222246
-0.000198485
0.000311859
-0.000181761
0.000275315
-0.000162515
0.000237797
-0.000141737
0.000200689
-0.000120594
0.000165254
-0.000100183
0.000132699
-8.13658e-05
0.000103835
-6.46889e-05
7.90779e-05
-5.03933e-05
5.84607e-05
-3.84773e-05
4.1746e-05
-2.87783e-05
2.85329e-05
-2.10462e-05
1.83494e-05
-1.49986e-05
1.07182e-05
-1.03571e-05
5.19569e-06
-6.86759e-06
1.39018e-06
-4.30911e-06
-1.03337e-06
-2.49528e-06
-2.35619e-06
-1.27199e-06
-2.81212e-06
-5.13282e-07
-2.59495e-06
-1.16917e-07
-1.86749e-06
-7.66329e-07
-0.000205194
0.000334537
0.000217662
-0.000189405
0.00029607
-0.000170718
0.000256629
-0.000150113
0.000217191
-0.000128772
0.000179348
-0.000107885
0.000144367
-8.84099e-05
0.000113223
-7.09872e-05
8.64128e-05
-5.59274e-05
6.40181e-05
-4.32745e-05
4.58078e-05
-3.28903e-05
3.13617e-05
-2.45334e-05
2.01761e-05
-1.79223e-05
1.17382e-05
-1.27748e-05
5.57073e-06
-8.8318e-06
1.25268e-06
-5.86699e-06
-1.57464e-06
-3.68941e-06
-3.21094e-06
-2.14126e-06
-3.90434e-06
-1.09363e-06
-3.85975e-06
-4.41676e-07
-3.2469e-06
-1.00299e-07
-2.20887e-06
-8.66628e-07
-0.000195197
0.000320322
0.000209412
-0.000177569
0.000278443
-0.000157468
0.000236527
-0.000136244
0.000195968
-0.000115108
0.000158213
-9.51573e-05
0.000124416
-7.71243e-05
9.51901e-05
-6.1403e-05
7.06915e-05
-4.80911e-05
5.07062e-05
-3.70804e-05
3.47972e-05
-2.81444e-05
2.24257e-05
-2.10046e-05
1.30363e-05
-1.53771e-05
6.11064e-06
-1.09983e-05
1.19192e-06
-7.63755e-06
-2.10802e-06
-5.10028e-06
-4.11191e-06
-3.22595e-06
-5.08528e-06
-1.88398e-06
-5.24631e-06
-9.68648e-07
-4.77508e-06
-3.94145e-07
-3.82141e-06
-9.04547e-08
-2.51256e-06
-9.57083e-07
-0.000181756
0.000303908
0.000198171
-0.000162883
0.000259569
-0.000142233
0.000215877
-0.000121293
0.000175028
-0.000101209
0.000138129
-8.28387e-05
0.000106046
-6.6656e-05
7.90075e-05
-5.2824e-05
5.68595e-05
-4.12801e-05
3.91622e-05
-3.18259e-05
2.5343e-05
-2.41985e-05
1.47983e-05
-1.81201e-05
6.95784e-06
-1.33273e-05
1.31786e-06
-9.58683e-06
-2.54854e-06
-6.70064e-06
-4.99422e-06
-4.50544e-06
-6.30711e-06
-2.86907e-06
-6.72164e-06
-1.68555e-06
-6.42982e-06
-8.69889e-07
-5.59075e-06
-3.53225e-07
-4.33807e-06
-7.9093e-08
-2.78669e-06
-1.03618e-06
-0.000345606
0.000247774
0.00040174
-0.000290048
0.000204011
-0.000237671
0.000163501
-0.00019038
0.000127737
-0.000149232
9.69801e-05
-0.000114589
7.1403e-05
-8.6228e-05
5.06463e-05
-6.35663e-05
3.41978e-05
-4.58427e-05
2.14386e-05
-3.22541e-05
1.17544e-05
-2.20387e-05
4.58293e-06
-1.452e-05
-5.60899e-07
-9.12093e-06
-4.08116e-06
-5.36261e-06
-6.30685e-06
-2.85379e-06
-7.50304e-06
-1.27757e-06
-7.88334e-06
-3.77923e-07
-7.62129e-06
5.22501e-08
-6.86e-06
1.80988e-07
-5.71948e-06
1.45004e-07
-4.30209e-06
5.51136e-08
-2.6968e-06
-9.81063e-07
-0.000287112
0.000189453
0.000345433
-0.000233309
0.000150207
-0.000185573
0.000115765
-0.000144638
8.68016e-05
-0.000110557
6.28995e-05
-8.28996e-05
4.37455e-05
-6.09479e-05
2.86945e-05
-4.38643e-05
1.71142e-05
-3.08111e-05
8.38546e-06
-2.10184e-05
1.96159e-06
-1.38157e-05
-2.61977e-06
-8.63975e-06
-5.73682e-06
-5.02813e-06
-7.69278e-06
-2.60655e-06
-8.72843e-06
-1.07444e-06
-9.03515e-06
-1.9108e-07
-8.7667e-06
2.36376e-07
-8.04875e-06
3.62722e-07
-6.98634e-06
3.124e-07
-5.66916e-06
1.85296e-07
-4.17498e-06
6.07385e-08
-2.57224e-06
-9.20324e-07
-0.000224986
0.00013505
0.000279388
-0.000177445
0.000102667
-0.000137317
7.56364e-05
-0.000104271
5.37564e-05
-7.77136e-05
3.63417e-05
-5.67869e-05
2.28188e-05
-4.0599e-05
1.25067e-05
-2.82901e-05
4.80536e-06
-1.90938e-05
-8.10822e-07
-1.23551e-05
-4.77714e-06
-7.53075e-06
-7.44411e-06
-4.17907e-06
-9.0885e-06
-1.94516e-06
-9.9267e-06
-5.45706e-07
-1.01279e-05
2.44836e-07
-9.82569e-06
6.05989e-07
-9.12785e-06
6.80723e-07
-8.12348e-06
5.82841e-07
-6.88846e-06
4.02625e-07
-5.48894e-06
2.11152e-07
-3.98351e-06
6.33038e-08
-2.42439e-06
-8.5702e-07
-0.000166125
8.86638e-05
0.000212511
-0.0001273
6.38419e-05
-9.57902e-05
4.41267e-05
-7.06646e-05
2.86309e-05
-5.10439e-05
1.6721e-05
-3.59718e-05
7.74662e-06
-2.45914e-05
1.12629e-06
-1.61494e-05
-3.63668e-06
-1.00137e-05
-6.94647e-06
-5.66602e-06
-9.12486e-06
-2.68795e-06
-1.04222e-05
-7.45395e-07
-1.10311e-05
4.2707e-07
-1.10992e-05
1.03986e-06
-1.07407e-05
1.25972e-06
-1.00456e-05
1.21883e-06
-9.08696e-06
1.02181e-06
-7.92646e-06
7.51057e-07
-6.61771e-06
4.70745e-07
-5.20863e-06
2.29891e-07
-3.74265e-06
6.46331e-08
-2.25913e-06
-7.92387e-07
-0.000114537
5.19932e-05
0.000151208
-8.49523e-05
3.42571e-05
-6.16632e-05
2.08377e-05
-4.36074e-05
1.0575e-05
-2.98721e-05
2.98575e-06
-1.95982e-05
-2.52726e-06
-1.2064e-05
-6.40789e-06
-6.66742e-06
-9.03328e-06
-2.91957e-06
-1.06943e-05
-4.28286e-07
-1.16161e-05
1.11836e-06
-1.19688e-05
1.96731e-06
-1.188e-05
2.31374e-06
-1.14456e-05
2.3118e-06
-1.07387e-05
2.08323e-06
-9.81699e-06
1.72401e-06
-8.72774e-06
1.30948e-06
-7.51192e-06
8.97993e-07
-6.20622e-06
5.33913e-07
-4.84455e-06
2.49619e-07
-3.45836e-06
6.72513e-08
-2.07677e-06
-7.25136e-07
-7.16692e-05
2.49162e-05
9.87462e-05
-5.05486e-05
1.31365e-05
-3.43647e-05
4.65381e-06
-2.2185e-05
-1.6047e-06
-1.32046e-05
-5.99459e-06
-6.73675e-06
-8.99515e-06
-2.21859e-06
-1.0926e-05
8.04547e-07
-1.20564e-05
2.69569e-06
-1.25855e-05
3.74261e-06
-1.26631e-05
4.17253e-06
-1.23987e-05
4.16457e-06
-1.18721e-05
3.85987e-06
-1.11409e-05
3.36962e-06
-1.02485e-05
2.78125e-06
-9.22862e-06
2.16327e-06
-8.10976e-06
1.56854e-06
-6.9172e-06
1.03727e-06
-5.67495e-06
5.9866e-07
-4.40594e-06
2.72813e-07
-3.13251e-06
7.16363e-08
-1.87559e-06
-6.535e-07
-3.72267e-05
6.26245e-06
5.58805e-05
-2.32092e-05
-8.81047e-07
-1.28272e-05
-5.7281e-06
-5.34375e-06
-9.0882e-06
-1.14856e-07
-1.12235e-05
3.37461e-06
-1.24846e-05
5.54192e-06
-1.30934e-05
6.71759e-06
-1.32321e-05
7.16284e-06
-1.30307e-05
7.08301e-06
-1.25832e-05
6.63928e-06
-1.1955e-05
5.95811e-06
-1.11909e-05
5.1389e-06
-1.03217e-05
4.2596e-06
-9.36917e-06
3.38134e-06
-8.35036e-06
2.55133e-06
-7.27976e-06
1.80573e-06
-6.17159e-06
1.17078e-06
-5.04e-06
6.64817e-07
-3.89998e-06
2.98748e-07
-2.76644e-06
7.74332e-08
-1.65428e-06
-5.76066e-07
-1.01381e-05
-5.43e-06
2.18305e-05
-1.82378e-06
-9.19533e-06
3.9515e-06
-1.15034e-05
7.74696e-06
-1.28837e-05
1.00462e-05
-1.35227e-05
1.12198e-05
-1.36582e-05
1.15643e-05
-1.34378e-05
1.13106e-05
-1.29784e-05
1.06393e-05
-1.23593e-05
9.69063e-06
-1.16346e-05
8.57404e-06
-1.08384e-05
7.37472e-06
-9.99157e-06
6.15913e-06
-9.10609e-06
4.97928e-06
-8.18932e-06
3.8754e-06
-7.24647e-06
2.87858e-06
-6.28293e-06
2.01168e-06
-5.3047e-06
1.29121e-06
-4.31953e-06
7.27182e-07
-3.33595e-06
3.2473e-07
-2.36399e-06
8.37366e-08
-1.41328e-06
-4.9233e-07
1.05359e-05
-1.15664e-05
-4.39948e-06
1.43895e-05
-1.3049e-05
1.65898e-05
-1.37036e-05
1.75455e-05
-1.38394e-05
1.76014e-05
-1.35786e-05
1.70128e-05
-1.30697e-05
1.59797e-05
-1.24047e-05
1.46541e-05
-1.16529e-05
1.31528e-05
-1.0858e-05
1.15646e-05
-1.00464e-05
9.95798e-06
-9.23175e-06
8.38529e-06
-8.41888e-06
6.88719e-06
-7.60799e-06
5.49497e-06
-6.7971e-06
4.23291e-06
-5.98441e-06
3.11904e-06
-5.16906e-06
2.16678e-06
-4.35244e-06
1.38466e-06
-3.53741e-06
7.77714e-07
-2.729e-06
3.46764e-07
-1.93304e-06
8.94778e-08
-1.15599e-06
-4.02852e-07
2.5357e-05
-1.34084e-05
-2.3515e-05
2.58259e-05
-1.35179e-05
2.53493e-05
-1.3227e-05
2.42069e-05
-1.2697e-05
2.26272e-05
-1.19989e-05
2.07737e-05
-1.12162e-05
1.87694e-05
-1.04005e-05
1.67044e-05
-9.58782e-06
1.46447e-05
-8.79831e-06
1.2639e-05
-8.04073e-06
1.07232e-05
-7.31594e-06
8.92416e-06
-6.61987e-06
7.26227e-06
-5.9461e-06
5.75307e-06
-5.2879e-06
4.40814e-06
-4.63948e-06
3.23626e-06
-3.99719e-06
2.24311e-06
-3.35929e-06
1.43234e-06
-2.72663e-06
8.04803e-07
-2.10147e-06
3.59595e-07
-1.48783e-06
9.31534e-08
-8.89553e-07
-3.09698e-07
3.44805e-05
-1.21317e-05
-3.57571e-05
3.25521e-05
-1.15895e-05
3.02303e-05
-1.09052e-05
2.76842e-05
-1.01509e-05
2.50467e-05
-9.36138e-06
2.24079e-05
-8.57733e-06
1.98304e-05
-7.82296e-06
1.73558e-05
-7.11329e-06
1.50116e-05
-6.45405e-06
1.28153e-05
-5.84441e-06
1.07784e-05
-5.27907e-06
8.90866e-06
-4.75013e-06
7.21148e-06
-4.24892e-06
5.69071e-06
-3.76713e-06
4.34923e-06
-3.298e-06
3.18866e-06
-2.83662e-06
2.20995e-06
-2.38057e-06
1.41264e-06
-1.92932e-06
7.95726e-07
-1.48456e-06
3.56882e-07
-1.04899e-06
9.3032e-08
-6.25703e-07
-2.16666e-07
3.77817e-05
-8.90817e-06
-4.10052e-05
3.44348e-05
-8.24265e-06
3.10922e-05
-7.56259e-06
2.78337e-05
-6.89239e-06
2.47177e-05
-6.24545e-06
2.1778e-05
-5.63763e-06
1.90323e-05
-5.07723e-06
1.64868e-05
-4.56779e-06
1.41411e-05
-4.10834e-06
1.19911e-05
-3.69443e-06
1.00315e-05
-3.31945e-06
8.25706e-06
-2.97569e-06
6.66335e-06
-2.6552e-06
5.24696e-06
-2.35074e-06
4.00513e-06
-2.05618e-06
2.93566e-06
-1.76714e-06
2.03617e-06
-1.48108e-06
1.30435e-06
-1.1975e-06
7.3744e-07
-9.17644e-07
3.32803e-07
-6.44353e-07
8.76691e-08
-3.80568e-07
-1.28997e-07
3.50246e-05
-4.95686e-06
-3.89759e-05
3.12732e-05
-4.49121e-06
2.77583e-05
-4.0477e-06
2.44969e-05
-3.63099e-06
2.14965e-05
-3.24503e-06
1.87529e-05
-2.89406e-06
1.6255e-05
-2.57936e-06
1.39875e-05
-2.30024e-06
1.19333e-05
-2.05419e-06
1.00762e-05
-1.8373e-06
8.4016e-06
-1.64484e-06
6.89758e-06
-1.47167e-06
5.55501e-06
-1.31263e-06
4.3672e-06
-1.16293e-06
3.32945e-06
-1.01843e-06
2.43822e-06
-8.75908e-07
1.69056e-06
-7.33417e-07
1.08343e-06
-5.90373e-07
6.13655e-07
-4.4787e-07
2.77919e-07
-3.08616e-07
7.35976e-08
-1.76246e-07
-5.53995e-08
2.60203e-05
-1.55887e-06
-2.94183e-05
2.2922e-05
-1.39294e-06
2.01124e-05
-1.23806e-06
1.75769e-05
-1.09549e-06
1.52983e-05
-9.66458e-07
1.3256e-05
-8.51826e-07
1.1428e-05
-7.51323e-07
9.79193e-06
-6.64163e-07
8.32683e-06
-5.89077e-07
7.01402e-06
-5.24489e-07
5.83781e-06
-4.68633e-07
4.78578e-06
-4.19633e-07
3.84874e-06
-3.75594e-07
3.02047e-06
-3.3466e-07
2.29713e-06
-2.9509e-07
1.67658e-06
-2.55357e-07
1.15744e-06
-2.14274e-07
7.3827e-07
-1.71201e-07
4.1678e-07
-1.26379e-07
1.89416e-07
-8.12519e-08
5.15176e-08
-3.83473e-08
-3.88189e-09
1.07465e-05
-1.22859e-05
9.36919e-06
8.14397e-06
7.05916e-06
6.10174e-06
5.25768e-06
4.51314e-06
3.85498e-06
3.27129e-06
2.75169e-06
2.28752e-06
1.872e-06
1.50019e-06
1.16904e-06
8.77168e-07
6.24755e-07
4.13137e-07
2.44281e-07
1.19904e-07
4.02626e-08
3.08085e-09
0.000298257
2.60411e-05
7.03507e-07
-0.000325002
0.000272999
2.452e-05
7.38137e-07
0.000249136
2.30939e-05
7.68972e-07
0.000226588
2.17522e-05
7.9562e-07
0.000205279
2.04909e-05
8.18086e-07
0.000185137
1.93064e-05
8.3647e-07
0.000166091
1.81945e-05
8.50902e-07
0.000148079
1.71509e-05
8.61554e-07
0.000131039
1.61713e-05
8.6862e-07
0.000114915
1.52514e-05
8.72285e-07
9.96567e-05
1.43858e-05
8.72622e-07
8.52207e-05
1.35666e-05
8.69368e-07
7.15801e-05
1.27791e-05
8.61529e-07
5.87356e-05
1.19976e-05
8.47014e-07
4.67307e-05
1.11824e-05
8.22438e-07
3.56651e-05
1.02821e-05
7.83488e-07
2.56978e-05
9.24167e-06
7.2565e-07
1.70383e-05
8.0142e-06
6.45322e-07
9.92398e-06
6.57357e-06
5.40697e-07
4.58982e-06
4.92178e-06
4.12375e-07
1.23559e-06
3.09084e-06
2.63398e-07
1.13694e-06
9.86459e-08
0.000297852
5.27084e-05
-0.000324519
0.000272664
4.97084e-05
0.000248861
4.68964e-05
0.000226365
4.42483e-05
0.0002051
4.17559e-05
0.000184994
3.94123e-05
0.00016598
3.7209e-05
0.000147993
3.51378e-05
0.000130974
3.31903e-05
0.000114867
3.13581e-05
9.96221e-05
2.96309e-05
8.51963e-05
2.79923e-05
7.1563e-05
2.64124e-05
5.87233e-05
2.48372e-05
4.67215e-05
2.31842e-05
3.56577e-05
2.13459e-05
2.56918e-05
1.92076e-05
1.70336e-05
1.66724e-05
9.92089e-06
1.36863e-05
4.58829e-06
1.02544e-05
1.23524e-06
6.4439e-06
2.37218e-06
0.000296606
7.91727e-05
-0.00032307
0.000271593
7.47214e-05
0.000247941
7.05486e-05
0.000225575
6.66137e-05
0.000204424
6.29067e-05
0.000184419
5.9418e-05
0.000165492
5.61356e-05
0.000147582
5.30476e-05
0.000130631
5.0142e-05
0.000114582
4.74064e-05
9.93874e-05
4.48256e-05
8.50044e-05
4.23753e-05
7.14073e-05
4.00095e-05
5.85977e-05
3.76468e-05
4.66213e-05
3.51607e-05
3.55787e-05
3.23885e-05
2.56314e-05
2.91549e-05
1.69899e-05
2.53139e-05
9.89248e-06
2.07837e-05
4.5733e-06
1.55736e-05
1.23027e-06
9.78693e-06
3.60245e-06
0.000294867
0.000105327
-0.000321021
0.000270124
9.94642e-05
0.000246702
9.3971e-05
0.000224533
8.87824e-05
0.000203551
8.3889e-05
0.00018369
7.92792e-05
0.000164887
7.49383e-05
0.000147083
7.08514e-05
0.000130222
6.70032e-05
0.000114251
6.33779e-05
9.91204e-05
5.99558e-05
8.47914e-05
5.67044e-05
7.12382e-05
5.35627e-05
5.84643e-05
5.04206e-05
4.65158e-05
4.71092e-05
3.54963e-05
4.3408e-05
2.55678e-05
3.90834e-05
1.69436e-05
3.3938e-05
9.862e-06
2.78653e-05
4.55722e-06
2.08783e-05
1.22518e-06
1.3119e-05
4.82762e-06
0.000292817
0.000131077
-0.000318567
0.000268421
0.000123859
0.000245293
0.0001171
0.000223374
0.000110701
0.000202605
0.000104658
0.000182925
9.89596e-05
0.000164275
9.35877e-05
0.000146601
8.85256e-05
0.000129849
8.37557e-05
0.000113967
7.92591e-05
9.89112e-05
7.5012e-05
8.46411e-05
7.09745e-05
7.11334e-05
6.70703e-05
5.83926e-05
6.31615e-05
4.64668e-05
5.9035e-05
3.54611e-05
5.44137e-05
2.55413e-05
4.90032e-05
1.69226e-05
4.25567e-05
9.84675e-06
3.49412e-05
4.54773e-06
2.61774e-05
1.22164e-06
1.64451e-05
6.04926e-06
0.000290853
0.000156368
-0.000316143
0.000266852
0.000147861
0.000244052
0.000139899
0.000222409
0.000132343
0.000201871
0.000125197
0.000182383
0.000118448
0.000163892
0.000112078
0.000146348
0.00010607
0.000129701
0.000100403
0.000113902
9.50575e-05
9.89092e-05
9.00052e-05
8.46841e-05
8.51997e-05
7.12052e-05
8.05492e-05
5.84775e-05
7.58891e-05
4.65519e-05
7.09606e-05
3.55349e-05
6.54306e-05
2.55976e-05
5.89405e-05
1.69588e-05
5.11955e-05
9.86533e-06
4.20347e-05
4.55426e-06
3.14884e-05
1.22199e-06
1.97773e-05
7.27125e-06
0.000289191
0.000181155
-0.000313979
0.000265612
0.00017144
0.000243159
0.000162353
0.000221802
0.000153701
0.000201497
0.000145502
0.000182198
0.000137746
0.00016386
0.000130416
0.000146435
0.000123494
0.000129879
0.000116959
0.000114148
0.000110789
9.91985e-05
0.000104954
8.49976e-05
9.94007e-05
7.15227e-05
9.40241e-05
5.87818e-05
8.86301e-05
4.68242e-05
8.29182e-05
3.57632e-05
7.64916e-05
2.5771e-05
6.89328e-05
1.70776e-05
5.98888e-05
9.93357e-06
4.91788e-05
4.58456e-06
3.68375e-05
1.2291e-06
2.31328e-05
8.50036e-06
0.000288009
0.000205414
-0.000312267
0.00026487
0.000194579
0.000242772
0.00018445
0.000221702
0.00017477
0.000201626
0.000165578
0.000182506
0.000156866
0.000164304
0.000148619
0.000146978
0.000140819
0.000130489
0.000133448
0.000114796
0.000126482
9.98607e-05
0.000119889
8.565e-05
0.000113611
7.21447e-05
0.000107529
5.93504e-05
0.000101424
4.73218e-05
9.49467e-05
3.61706e-05
8.76428e-05
2.60816e-05
7.90218e-05
1.7288e-05
6.86824e-05
1.00572e-05
5.64096e-05
4.63922e-06
4.22554e-05
1.24225e-06
2.65297e-05
9.7426e-06
0.000287439
0.000229126
-0.000311151
0.00026474
0.000217277
0.000242987
0.000206203
0.000222186
0.000195571
0.000202316
0.000185448
0.00018335
0.000175832
0.000165258
0.000166711
0.000148005
0.000158073
0.000131555
0.000149898
0.000115873
0.000142165
0.000100921
0.000134841
8.66704e-05
0.000127862
7.30993e-05
0.0001211
6.02162e-05
0.000114307
4.80723e-05
0.000107091
3.67879e-05
9.89271e-05
2.655e-05
8.92598e-05
1.76112e-05
7.76212e-05
1.02473e-05
6.37736e-05
4.72738e-06
4.77753e-05
1.26471e-06
2.99924e-05
1.10073e-05
0.000287518
0.000252279
-0.000310671
0.000265266
0.00023953
0.00024386
0.000227609
0.000223323
0.000216108
0.000203645
0.000205126
0.00018481
0.000194667
0.000166797
0.000184724
0.00014958
0.00017529
0.000133129
0.000166349
0.000117413
0.000157881
0.0001024
0.000149853
8.8061e-05
0.000142201
7.43775e-05
0.000134784
6.13547e-05
0.00012733
4.90479e-05
0.000119397
3.75775e-05
0.000110397
2.71453e-05
9.96919e-05
1.80139e-05
8.67526e-05
1.04823e-05
7.13052e-05
4.83158e-06
5.3426e-05
1.28974e-06
3.35343e-05
1.22971e-05
0.000288238
0.000274864
-0.000310823
0.00026641
0.000261359
0.000245318
0.0002487
0.000225011
0.000236415
0.000205494
0.000224643
0.000186764
0.000213397
0.000168808
0.000202681
0.000151604
0.000192493
0.000135131
0.000182823
0.000119359
0.000173652
0.000104262
0.000164951
8.98113e-05
0.000156652
7.59871e-05
0.000148608
6.27946e-05
0.000140523
5.02855e-05
0.000131907
3.85866e-05
0.000122096
2.79078e-05
0.000110371
1.85352e-05
9.61253e-05
1.0788e-05
7.90524e-05
4.97192e-06
5.9242e-05
1.32606e-06
3.71801e-05
1.36231e-05
0.000289619
0.000296849
-0.000311605
0.00026824
0.000282738
0.000247478
0.000269463
0.000227391
0.000256503
0.000208005
0.000244029
0.000189335
0.000232067
0.000171381
0.000220635
0.000154134
0.00020974
0.000137579
0.000199379
0.000121692
0.000189539
0.000106451
0.000180192
9.1829e-05
0.000171274
7.78069e-05
0.00016263
6.4388e-05
0.000153942
5.16262e-05
0.000144668
3.96524e-05
0.00013407
2.86926e-05
0.00012133
1.90526e-05
0.000105765
1.1078e-05
8.7027e-05
5.09391e-06
6.52261e-05
1.35189e-06
4.09221e-05
1.4975e-05
0.000291473
0.000318245
-0.000312869
0.00027047
0.00030374
0.000249991
0.000289941
0.000230103
0.000276391
0.000210842
0.00026329
0.000192232
0.000250677
0.000174283
0.000238584
0.000156993
0.000227029
0.000140354
0.000216018
0.00012435
0.000205543
0.000108959
0.000195583
9.41585e-05
0.000186075
7.99281e-05
0.000176861
6.62678e-05
0.000167602
5.32278e-05
0.000157708
4.09431e-05
0.000146355
2.96531e-05
0.00013262
1.96918e-05
0.000115727
1.14387e-05
9.52801e-05
5.24955e-06
7.14152e-05
1.38905e-06
4.47826e-05
1.6364e-05
0.000293694
0.000338836
-0.000314285
0.00027317
0.000324264
0.000252994
0.000310117
0.000233272
0.000296114
0.000214079
0.000282483
0.000195463
0.000269293
0.000177448
0.000256598
0.000160047
0.00024443
0.000143259
0.000232806
0.000127074
0.000221728
0.000111475
0.000211181
9.64419e-05
0.000201108
8.19535e-05
0.000191349
6.80082e-05
0.000181547
5.46558e-05
0.000171061
4.20374e-05
0.000158973
3.04127e-05
0.000144245
2.01469e-05
0.000125992
1.16544e-05
0.000103773
5.31322e-06
7.77563e-05
1.38956e-06
4.87063e-05
1.77536e-05
0.000296216
0.000358686
-0.000316066
0.000276029
0.000344451
0.000256157
0.000329989
0.000236638
0.000315633
0.00021756
0.000301561
0.000198982
0.000287871
0.000180939
0.00027464
0.000163453
0.000261917
0.000146531
0.000249729
0.00013017
0.000238089
0.000114359
0.000226992
9.90776e-05
0.000216389
8.43036e-05
0.000206123
7.00324e-05
0.000195819
5.6314e-05
0.000184779
4.33002e-05
0.000171987
3.12742e-05
0.000156271
2.06378e-05
0.000136629
1.18471e-05
0.000112563
5.31725e-06
8.42862e-05
1.33493e-06
5.26886e-05
1.90885e-05
1.2281e-05
0.000361167
-1.47618e-05
9.73706e-06
0.000346995
7.30355e-06
0.000332423
4.89049e-06
0.000318046
2.50785e-06
0.000303943
1.50735e-07
0.000290228
-2.17981e-06
0.000276971
-4.47884e-06
0.000264216
-6.73927e-06
0.000251989
-8.94947e-06
0.000240299
-1.10836e-05
0.000229126
-1.30785e-05
0.000218384
-1.48001e-05
0.000207845
-1.60218e-05
0.00019704
-1.64488e-05
0.000185206
-1.58036e-05
0.000171342
-1.39552e-05
0.000154423
-1.10289e-05
0.000133703
-7.44875e-06
0.000108983
-3.88625e-06
8.07237e-05
-1.1433e-06
4.99457e-05
1.79452e-05
7.08993e-06
0.000363953
-9.87657e-06
4.4375e-06
0.000349648
1.8254e-06
0.000335035
-7.29142e-07
0.000320601
-3.21005e-06
0.000306424
-5.61735e-06
0.000292636
-7.94596e-06
0.0002793
-1.01908e-05
0.000266461
-1.23447e-05
0.000254143
-1.43933e-05
0.000242348
-1.63004e-05
0.000231033
-1.79823e-05
0.000220066
-1.92785e-05
0.000209141
-1.99457e-05
0.000197707
-1.96992e-05
0.00018496
-1.83107e-05
0.000169953
-1.57244e-05
0.000151836
-1.21469e-05
0.000130125
-8.06173e-06
0.000104898
-4.16499e-06
7.68269e-05
-1.23641e-06
4.70171e-05
1.67088e-05
1.83973e-06
0.000366958
-4.84423e-06
-9.23946e-07
0.000352412
-3.63859e-06
0.000337749
-6.24517e-06
0.000323207
-8.74186e-06
0.000308921
-1.11256e-05
0.000295019
-1.33917e-05
0.000281566
-1.55361e-05
0.000268605
-1.75507e-05
0.000256158
-1.94154e-05
0.000244212
-2.10795e-05
0.000232697
-2.24338e-05
0.00022142
-2.3291e-05
0.000209998
-2.33936e-05
0.00019781
-2.24761e-05
0.000184042
-2.03632e-05
0.00016784
-1.70804e-05
0.000148553
-1.29143e-05
0.000125959
-8.40767e-06
0.000100391
-4.26956e-06
7.26888e-05
-1.24728e-06
4.39948e-05
1.54615e-05
-3.41829e-06
0.000370077
2.98588e-07
-6.28085e-06
0.000355274
-9.04948e-06
0.000340518
-1.16682e-05
0.000325826
-1.41438e-05
0.000311397
-1.64708e-05
0.000297346
-1.86463e-05
0.000283741
-2.06666e-05
0.000270625
-2.25213e-05
0.000258012
-2.41812e-05
0.000245872
-2.55755e-05
0.000234092
-2.65683e-05
0.000222413
-2.69459e-05
0.000210376
-2.64486e-05
0.000197313
-2.4839e-05
0.000182433
-2.20108e-05
0.000165012
-1.80723e-05
0.000144615
-1.33927e-05
0.000121279
-8.55659e-06
9.55553e-05
-4.27027e-06
6.84025e-05
-1.22577e-06
4.09503e-05
1.42358e-05
-8.78948e-06
0.000373252
5.61448e-06
-1.17093e-05
0.000358194
-1.44813e-05
0.00034329
-1.70704e-05
0.000328415
-1.94866e-05
0.000313813
-2.17244e-05
0.000299584
-2.37829e-05
0.0002858
-2.56575e-05
0.0002725
-2.73329e-05
0.000259688
-2.87655e-05
0.000247305
-2.98615e-05
0.000235188
-3.04547e-05
0.000223006
-3.03146e-05
0.000210236
-2.91844e-05
0.000196183
-2.68744e-05
0.000180123
-2.33478e-05
0.000161486
-1.88057e-05
0.000140073
-1.36811e-05
0.000116155
-8.59333e-06
9.04675e-05
-4.2209e-06
6.40301e-05
-1.19355e-06
3.7923e-05
1.30422e-05
-1.44117e-05
0.000376442
1.12224e-05
-1.73441e-05
0.000361126
-2.00779e-05
0.000346024
-2.26014e-05
0.000330939
-2.4924e-05
0.000316135
-2.7043e-05
0.000301703
-2.89586e-05
0.000287715
-3.06641e-05
0.000274205
-3.21349e-05
0.000261158
-3.33098e-05
0.00024848
-3.40659e-05
0.000235944
-3.42121e-05
0.000223153
-3.35017e-05
0.000209525
-3.17022e-05
0.000194383
-2.86719e-05
0.000177092
-2.44642e-05
0.000157278
-1.9355e-05
0.000134964
-1.38458e-05
0.000110646
-8.55936e-06
8.51811e-05
-4.1449e-06
5.96156e-05
-1.15571e-06
3.49338e-05
1.18865e-05
-2.04357e-05
0.000379601
1.72764e-05
-2.33297e-05
0.00036402
-2.59836e-05
0.000348678
-2.84037e-05
0.000333359
-3.05986e-05
0.00031833
-3.25687e-05
0.000303673
-3.43144e-05
0.000289461
-3.58235e-05
0.000275715
-3.70587e-05
0.000262394
-3.7934e-05
0.000249355
-3.82988e-05
0.000236309
-3.79337e-05
0.000222788
-3.65946e-05
0.000208186
-3.40737e-05
0.000191862
-3.03055e-05
0.000173324
-2.54186e-05
0.000152391
-1.97803e-05
0.000129325
-1.39255e-05
0.000104791
-8.48563e-06
7.97412e-05
-4.05406e-06
5.5184e-05
-1.11657e-06
3.19963e-05
1.07699e-05
-2.70722e-05
0.000382689
2.3984e-05
-2.98798e-05
0.000366828
-3.24126e-05
0.00035121
-3.46899e-05
0.000335636
-3.67203e-05
0.000320361
-3.85075e-05
0.00030546
-4.00492e-05
0.000291003
-4.13253e-05
0.000276991
-4.2279e-05
0.000263347
-4.27972e-05
0.000249873
-4.26959e-05
0.000236207
-4.17405e-05
0.000221832
-3.96903e-05
0.000206136
-3.63911e-05
0.000188563
-3.18451e-05
0.000168778
-2.62816e-05
0.000146828
-2.01273e-05
0.000123171
-1.39619e-05
9.86254e-05
-8.39038e-06
7.41697e-05
-3.95996e-06
5.07536e-05
-1.07771e-06
2.91141e-05
9.69223e-06
-3.45177e-05
0.000385657
3.15499e-05
-3.71857e-05
0.000369496
-3.95517e-05
0.000353576
-4.16426e-05
0.000337727
-4.34681e-05
0.000322186
-4.5033e-05
0.000307025
-4.63302e-05
0.0002923
-4.73256e-05
0.000277986
-4.79381e-05
0.00026396