/*--------------------------------*- C++ -*----------------------------------*\
| =========                 |                                                 |
| \\      /  F ield         | OpenFOAM Extend Project: Open source CFD        |
|  \\    /   O peration     | Version:  1.6-ext                               |
|   \\  /    A nd           | Web:      www.extend-project.de                 |
|    \\/     M anipulation  |                                                 |
\*---------------------------------------------------------------------------*/
FoamFile
{
    version     2.0;
    format      ascii;
    class       volVectorField;
    location    "0.65";
    object      U;
}
// * * * * * * * * * * * * * * * * * * * * * * * * * * * * * * * * * * * * * //

dimensions      [0 1 -1 0 0 0 0];

internalField   nonuniform List<vector> 
20940
(
(1.85188 0.396292 0)
(1.89174 0.416399 0)
(1.92949 0.435798 0)
(1.96428 0.45344 4.9812e-21)
(1.99583 0.469539 5.87185e-24)
(2.02252 0.482973 -7.6089e-24)
(2.04135 0.492643 -1.08066e-20)
(2.04755 0.496606 5.19011e-21)
(2.03469 0.492628 -7.80093e-22)
(1.99567 0.478463 -8.1906e-22)
(1.9242 0.452555 3.20323e-20)
(1.81663 0.414651 -3.70156e-20)
(1.67337 0.366164 2.1157e-20)
(1.49926 0.310072 -2.37131e-20)
(1.30277 0.250382 1.70909e-20)
(1.09438 0.191363 -9.40887e-24)
(0.884677 0.136835 -1.01474e-23)
(0.682814 0.0897184 1.09834e-20)
(0.49566 0.0518395 -1.14057e-20)
(0.327559 0.023983 5.90914e-21)
(0.180558 0.00663649 -1.24928e-23)
(0.0548826 0.000490117 0)
(1.87885 0.37274 -8.74651e-21)
(1.91744 0.3917 1.86503e-20)
(1.95361 0.409294 -1.53727e-20)
(1.98623 0.425161 -1.62747e-20)
(2.01451 0.438968 -1.2849e-21)
(2.03595 0.449516 1.72551e-20)
(2.04655 0.4554 0)
(2.04056 0.454587 -1.34968e-20)
(2.0112 0.445007 1.4693e-20)
(1.95193 0.424962 0)
(1.8582 0.393796 -1.06046e-20)
(1.72902 0.352304 3.62276e-20)
(1.56777 0.302799 2.04319e-20)
(1.38175 0.248731 2.33251e-20)
(1.18085 0.194018 -4.94048e-20)
(0.975664 0.14234 1.78244e-20)
(0.775837 0.0966303 0)
(0.589005 0.0588548 -1.0801e-20)
(0.420375 0.0300029 4.39664e-20)
(0.272829 0.0102317 -2.87875e-20)
(0.147354 -0.00039217 0)
(0.0435661 -0.00142078 9.80393e-21)
(1.90359 0.349141 1.87306e-20)
(1.94059 0.367027 1.33108e-21)
(1.97463 0.382926 2.598e-20)
(2.00424 0.397034 2.28397e-20)
(2.02784 0.408451 -1.6395e-20)
(2.04192 0.415895 3.45396e-20)
(2.04146 0.417718 -2.04263e-20)
(2.02003 0.411955 2.72211e-20)
(1.97107 0.396908 -2.96376e-20)
(1.88935 0.371631 -1.46609e-21)
(1.77279 0.33644 -2.50016e-21)
(1.62338 0.293072 2.2257e-20)
(1.44728 0.244451 1.45898e-20)
(1.25364 0.194126 3.08617e-20)
(1.05289 0.145595 -4.71026e-20)
(0.854974 0.10176 3.45167e-20)
(0.668115 0.0646466 -9.31212e-20)
(0.49823 0.0353717 2.93098e-20)
(0.348908 0.0142548 2.05452e-20)
(0.221739 0.000996196 0)
(0.116834 -0.00463377 4.6282e-20)
(0.0333509 -0.00238073 -5.72867e-20)
(1.92718 0.325869 -9.96885e-21)
(1.96214 0.342755 -1.34532e-20)
(1.99325 0.357004 -1.85727e-20)
(2.01853 0.369262 -8.21354e-22)
(2.0354 0.37806 -3.112e-20)
(2.03924 0.382066 -2.27377e-21)
(2.02417 0.379509 4.40221e-20)
(1.98365 0.368705 0)
(1.91208 0.348553 -3.30954e-20)
(1.80646 0.318999 7.00687e-20)
(1.66766 0.281306 5.99909e-22)
(1.5007 0.237924 -4.70537e-20)
(1.31399 0.19203 1.28796e-19)
(1.11764 0.146907 -8.45907e-20)
(0.921721 0.105386 6.24301e-20)
(0.734888 0.0695131 -8.30126e-20)
(0.56361 0.0404653 -5.37808e-20)
(0.412047 0.018662 1.51911e-19)
(0.282314 0.00392533 -1.80928e-19)
(0.174918 -0.00434622 8.35709e-20)
(0.0893011 -0.00656363 -2.27395e-20)
(0.0243031 -0.0025892 4.57655e-20)
(1.94935 0.303001 -4.08195e-21)
(1.98161 0.31889 5.97755e-20)
(2.00864 0.331445 -6.05803e-20)
(2.02773 0.341663 2.01462e-20)
(2.0351 0.347529 2.86705e-20)
(2.02515 0.347753 3.63518e-20)
(1.99158 0.340631 -4.3845e-20)
(1.92852 0.324988 -5.41211e-20)
(1.8323 0.300504 -3.43712e-20)
(1.70282 0.268053 3.34609e-20)
(1.54413 0.22967 -4.02309e-20)
(1.36385 0.18818 -9.07122e-20)
(1.17174 0.146637 4.87635e-20)
(0.977871 0.107768 -2.65575e-20)
(0.791199 0.0736108 0)
(0.61862 0.0453854 0)
(0.464752 0.023561 3.3268e-20)
(0.332127 0.00803363 3.53552e-20)
(0.221618 -0.00170419 0)
(0.132899 -0.00642129 -1.00224e-19)
(0.0649447 -0.00661653 4.12432e-20)
(0.0164262 -0.00221031 -1.70555e-20)
(1.96959 0.280609 2.34295e-20)
(1.99818 0.295456 -3.13094e-20)
(2.01943 0.306186 0)
(2.02974 0.314062 0)
(2.02411 0.316628 0)
(1.99633 0.312798 -1.35274e-21)
(1.94047 0.301161 4.41984e-20)
(1.85231 0.28127 1.49906e-21)
(1.73096 0.253668 0)
(1.57961 0.220034 -3.53303e-20)
(1.40518 0.182871 7.55271e-20)
(1.21703 0.145002 -4.22131e-20)
(1.02519 0.10903 4.83098e-20)
(0.838798 0.0769637 7.72738e-20)
(0.665097 0.0500452 0)
(0.509066 0.0287895 -6.1143e-20)
(0.373569 0.0131319 3.11295e-20)
(0.259757 0.00261995 -3.52855e-20)
(0.16754 -0.0034388 0)
(0.0960104 -0.00587632 -5.72645e-20)
(0.0438634 -0.00521392 9.95058e-20)
(0.00971828 -0.00139519 8.37318e-20)
(1.98749 0.258507 0)
(2.01085 0.272136 1.25635e-21)
(2.02384 0.280784 -4.03345e-20)
(2.02191 0.285964 0)
(1.99912 0.284935 -1.29337e-19)
(1.94942 0.277022 1.88327e-19)
(1.86821 0.261334 -1.32437e-19)
(1.75394 0.238274 1.008e-19)
(1.60906 0.209171 2.68739e-21)
(1.43985 0.176248 -6.51363e-20)
(1.2553 0.1421 0)
(1.06536 0.109202 1.25665e-19)
(0.879308 0.0795128 -8.97382e-20)
(0.704656 0.0542845 -1.50697e-19)
(0.546678 0.0340701 5.37716e-20)
(0.408502 0.0188482 0)
(0.291487 0.00819802 -3.02638e-20)
(0.195713 0.00147007 0)
(0.120415 -0.00210215 0)
(0.0643257 -0.00334147 -3.55879e-20)
(0.0260136 -0.00275123 -3.71005e-20)
(0.00413358 -0.000280267 -1.55598e-20)
(2.00155 0.236642 -5.94327e-20)
(2.01744 0.248816 -2.99041e-21)
(2.01889 0.255077 -2.91547e-21)
(2.00061 0.257216 0)
(1.95638 0.252461 6.31305e-20)
(1.88133 0.240774 -1.52504e-19)
(1.77332 0.22194 1.72746e-19)
(1.63416 0.197185 0)
(1.46958 0.168399 0)
(1.28824 0.137985 -6.37161e-20)
(1.1 0.108275 7.27754e-20)
(0.914267 0.0811712 -7.84262e-20)
(0.73878 0.0579231 0)
(0.57906 0.0391145 -4.65652e-20)
(0.438449 0.0247676 1.02741e-19)
(0.318469 0.0145031 0)
(0.219311 0.00769867 1.49045e-19)
(0.140296 0.00362405 -2.8156e-19)
(0.0802414 0.00151483 2.6483e-19)
(0.0377044 0.000600873 -2.06498e-19)
(0.0112399 0.000417428 1.09111e-19)
(-0.000405076 0.00101632 7.65189e-20)
(2.01054 0.21446 1.22813e-19)
(2.0157 0.224803 -1.46958e-19)
(2.00147 0.228354 4.44523e-20)
(1.96233 0.227307 1.40693e-21)
(1.89286 0.219101 -6.21653e-20)
(1.79052 0.204473 0)
(1.6565 0.183899 -1.73326e-19)
(1.49604 0.159227 0)
(1.3175 0.13257 0)
(1.13071 0.106152 6.32071e-20)
(0.945192 0.0818005 -1.38491e-19)
(0.768895 0.0607596 7.55495e-20)
(0.607566 0.0436389 0)
(0.464733 0.0305042 4.62665e-20)
(0.342044 0.0210234 -1.76358e-21)
(0.239767 0.0146156 0)
(0.157265 0.0105771 1.13704e-19)
(0.093387 0.00817584 -8.85955e-20)
(0.0467383 0.00669521 -3.10846e-20)
(0.0158382 0.00543942 6.65376e-20)
(-0.000696166 0.00398955 1.39346e-19)
(-0.00399645 0.0023968 -8.77102e-20)
(2.01103 0.192032 6.00867e-20)
(2.00162 0.200248 3.50167e-20)
(1.96728 0.20096 4.45724e-20)
(1.9034 0.19685 -1.20455e-21)
(1.80647 0.185835 -6.48994e-20)
(1.67731 0.169462 -7.48368e-20)
(1.52065 0.148756 8.56848e-20)
(1.34462 0.125874 -9.63733e-20)
(1.15903 0.102799 1.10111e-19)
(0.973559 0.0813209 -2.4203e-19)
(0.796391 0.0626533 2.67829e-19)
(0.633494 0.04743 -7.28547e-20)
(0.488568 0.0357582 7.92053e-20)
(0.363373 0.0273552 0)
(0.258229 0.0216895 -1.42943e-19)
(0.172516 0.0180986 2.52559e-19)
(0.10508 0.0158773 1.397e-21)
(0.0545288 0.0143389 -2.30092e-19)
(0.0194106 0.0128369 1.81644e-19)
(-0.00170341 0.0107566 -1.60582e-19)
(-0.0100906 0.00772416 2.33293e-19)
(-0.00675284 0.00378585 -1.68417e-19)
(2.00135 0.168331 6.2618e-20)
(1.97255 0.174169 0)
(1.9139 0.17216 -4.87166e-20)
(1.82252 0.165627 5.18113e-20)
(1.69806 0.153036 1.27117e-19)
(1.54504 0.136548 7.39973e-20)
(1.37126 0.117465 0)
(1.18661 0.0978978 1.89663e-19)
(1.00095 0.0794439 -5.2557e-20)
(0.822735 0.0633356 -5.81746e-20)
(0.658183 0.0502121 0)
(0.511173 0.040225 0)
(0.383566 0.0331433 -1.54874e-19)
(0.275724 0.0284894 0)
(0.187026 0.0256518 4.47494e-20)
(0.116298 0.0239677 -4.94974e-20)
(0.0621222 0.0227786 -5.13167e-20)
(0.0230345 0.0214661 1.6569e-19)
(-0.00237264 0.0194616 -1.45927e-19)
(-0.0154221 0.0162299 -3.0164e-20)
(-0.0172681 0.0114394 3.25603e-20)
(-0.00879073 0.00512795 2.76996e-20)
(1.97547 0.144503 0)
(1.92387 0.148066 0)
(1.83818 0.143859 -4.92166e-20)
(1.71919 0.135796 -5.78697e-20)
(1.57003 0.122914 0)
(1.39866 0.107747 -7.44689e-20)
(1.21484 0.0915949 1.64376e-19)
(1.0288 0.0762419 -1.85479e-19)
(0.84931 0.0627791 1.55878e-19)
(0.682918 0.0518904 5.92361e-20)
(0.533712 0.0437495 1.80331e-21)
(0.403673 0.038175 -1.36168e-19)
(0.293198 0.0347408 1.50758e-19)
(0.201655 0.0328869 -8.04832e-20)
(0.127836 0.0319982 -4.43008e-20)
(0.070282 0.0314564 9.44469e-20)
(0.0274975 0.0306708 -9.84111e-20)
(-0.00193884 0.0290984 -1.06698e-19)
(-0.0193283 0.026246 0)
(-0.0258626 0.0216525 3.00213e-20)
(-0.022572 0.0150251 -1.23749e-19)
(-0.0102312 0.00639305 -2.62992e-20)
(1.93524 0.118558 0)
(1.85619 0.120198 0)
(1.74259 0.114793 -9.86394e-20)
(1.59786 0.106581 2.76778e-19)
(1.42883 0.0951165 -6.27386e-20)
(1.24577 0.0828061 -7.24679e-20)
(1.05903 0.0707433 -2.75618e-22)
(0.877915 0.0602087 -3.22086e-22)
(0.709315 0.0518016 -1.01451e-19)
(0.557613 0.045757 -5.65045e-20)
(0.424932 0.0419335 2.42979e-19)
(0.31172 0.0399614 -2.65544e-19)
(0.217327 0.039335 2.1632e-19)
(0.140495 0.0394905 -7.66891e-20)
(0.0797134 0.0398553 9.33404e-22)
(0.0334376 0.0398767 -9.02076e-20)
(0.000214506 0.0390382 -4.82791e-20)
(-0.0212665 0.0368694 2.57988e-19)
(-0.0321705 0.0329472 -5.45702e-20)
(-0.0335519 0.0268779 -1.14557e-19)
(-0.0263263 0.0184074 8.94192e-20)
(-0.0111841 0.00756076 2.60089e-20)
(1.87042 0.0948987 0)
(1.76647 0.095282 1.71608e-21)
(1.62664 0.0894888 -1.92017e-19)
(1.46142 0.0821336 1.11665e-19)
(1.27949 0.072982 0)
(1.09229 0.0641223 7.13833e-20)
(0.909393 0.056359 -1.60513e-19)
(0.738335 0.0504289 8.81227e-20)
(0.58383 0.0465221 1.96032e-19)
(0.448235 0.0445425 1.6144e-19)
(0.332081 0.0441572 0)
(0.234721 0.0449089 0)
(0.154853 0.046281 6.95332e-20)
(0.0909013 0.047744 1.51786e-19)
(0.0412641 0.0487823 0)
(0.00444308 0.0489089 -8.81888e-20)
(-0.0208988 0.0476726 9.33495e-20)
(-0.0359299 0.0446655 9.99916e-20)
(-0.041672 0.0395237 -5.25622e-20)
(-0.039049 0.0319133 -5.55665e-20)
(-0.0288753 0.0216158 1.45058e-19)
(-0.0117725 0.00865574 -9.96648e-20)
(1.79767 0.0676733 0)
(1.66313 0.0676919 8.26221e-20)
(1.50126 0.0637901 9.59337e-20)
(1.32088 0.0585259 -1.10017e-19)
(1.13264 0.053221 -6.30872e-20)
(0.947455 0.0487947 6.93783e-20)
(0.77319 0.0458205 0)
(0.615131 0.0444835 0)
(0.475902 0.0446908 -9.52567e-20)
(0.356193 0.0461671 -2.09693e-19)
(0.255389 0.0485254 0)
(0.172154 0.0513239 1.87768e-19)
(0.104844 0.0540987 -3.39908e-19)
(0.0517757 0.0563858 7.22089e-20)
(0.0113818 0.0577341 7.95003e-20)
(-0.0177242 0.057714 -4.2434e-20)
(-0.0367353 0.0559258 4.50091e-20)
(-0.0466713 0.0520073 0)
(-0.0484164 0.0456406 0)
(-0.0427747 0.0365426 -1.61614e-19)
(-0.0304728 0.0245316 1.39518e-19)
(-0.0120803 0.0096406 -7.34534e-20)
(1.64983 0.0482421 -4.01125e-20)
(1.48427 0.0456019 4.42918e-20)
(1.30207 0.0437164 -1.57873e-19)
(1.11443 0.0414502 -6.08635e-20)
(0.930783 0.0403686 -1.33347e-19)
(0.758965 0.0403939 -7.42484e-20)
(0.603666 0.0417308 0)
(0.467275 0.0442016 -3.90474e-22)
(0.350237 0.0475666 2.98269e-19)
(0.251777 0.0515052 0)
(0.170431 0.0556577 0)
(0.104453 0.0596413 -1.29128e-19)
(0.0520849 0.0630611 0)
(0.011708 0.0655192 0)
(-0.0180934 0.0666248 -8.11391e-20)
(-0.0385187 0.066004 8.55566e-20)
(-0.0505727 0.0633112 -1.38455e-19)
(-0.0551032 0.0582419 1.45122e-19)
(-0.0528455 0.0505427 1.02401e-19)
(-0.0444772 0.04001 -1.06543e-19)
(-0.0306268 0.026539 -5.21015e-22)
(-0.0118088 0.0102133 -2.42238e-20)
(1.39673 0.0268383 1.25513e-19)
(1.2125 0.0266409 -4.72539e-20)
(1.02854 0.0291643 1.07112e-19)
(0.852246 0.0312475 1.21126e-19)
(0.689978 0.034767 1.3579e-19)
(0.545222 0.038783 1.51817e-19)
(0.41937 0.0434772 3.6329e-22)
(0.312226 0.0485568 -1.84475e-19)
(0.222615 0.0538287 -1.01237e-19)
(0.148862 0.0590388 1.10873e-19)
(0.0891379 0.063913 -5.92518e-20)
(0.0416773 0.0681508 -6.46651e-20)
(0.00489295 0.0714319 7.01958e-20)
(-0.0225771 0.0734257 0)
(-0.0418687 0.0738031 8.14125e-20)
(-0.0539172 0.0722506 -2.15333e-23)
(-0.0594956 0.0684853 4.42966e-22)
(-0.0592566 0.0622689 -2.42359e-19)
(-0.0537729 0.05342 1.01346e-19)
(-0.0435798 0.0418158 2.62611e-20)
(-0.0291803 0.0274262 -2.76643e-20)
(-0.0109977 0.0103675 9.40861e-20)
(1.11163 0.0152705 0)
(0.931846 0.0181273 1.0034e-19)
(0.765924 0.02454 -5.6475e-20)
(0.614512 0.0298506 -6.3553e-20)
(0.481555 0.0362897 0)
(0.366958 0.0426081 7.74452e-20)
(0.270222 0.0490503 -8.53838e-20)
(0.189799 0.0553442 1.87602e-19)
(0.123927 0.0613643 0)
(0.0707557 0.0669194 0)
(0.0285619 0.0717995 1.21657e-19)
(-0.00417813 0.0757618 0)
(-0.0287577 0.0785384 -7.12287e-20)
(-0.0462461 0.079846 -7.58678e-20)
(-0.0575138 0.0794005 0)
(-0.0632686 0.0769333 -4.35268e-20)
(-0.0640937 0.072208 -1.37295e-19)
(-0.0604844 0.0650362 9.62309e-20)
(-0.05288 0.0552892 0)
(-0.0416957 0.0429026 -1.57506e-19)
(-0.0273264 0.0278972 2.439e-19)
(-0.010115 0.0104051 -9.23037e-20)
(0.830904 0.0104989 9.10307e-20)
(0.672543 0.0170703 -1.02147e-19)
(0.535141 0.0259663 0)
(0.413822 0.0334462 1.92646e-19)
(0.31113 0.0413239 -7.10108e-20)
(0.224854 0.0486193 -2.53313e-23)
(0.153759 0.0555834 0)
(0.0958693 0.0620507 -1.90708e-19)
(0.0494255 0.0679693 1.03809e-19)
(0.0127595 0.073214 5.65086e-20)
(-0.0155709 0.0776288 -6.15846e-20)
(-0.0367872 0.0810138 0)
(-0.051895 0.0831365 -7.11534e-20)
(-0.0617093 0.0837437 7.6811e-20)
(-0.0668856 0.0825787 1.22308e-19)
(-0.0679538 0.0793996 2.5861e-22)
(-0.0653501 0.0739976 -4.53054e-20)
(-0.0594459 0.0662124 9.60583e-20)
(-0.0505724 0.0559448 -1.24991e-19)
(-0.039042 0.0431616 -7.78889e-20)
(-0.0251554 0.0279078 8.02482e-20)
(-0.0091807 0.0103152 0)
(0.577967 0.0121387 -9.25081e-20)
(0.449794 0.0214917 0)
(0.343347 0.0310694 0)
(0.251713 0.0393317 0)
(0.17638 0.0472744 0)
(0.114456 0.05443 -8.00261e-20)
(0.064596 0.0610087 0)
(0.0249216 0.0669555 0)
(-0.00606907 0.0722638 0)
(-0.0297409 0.0768525 5.72381e-20)
(-0.047231 0.0805957 -2.47712e-19)
(-0.0594821 0.0833183 1.33403e-19)
(-0.0672598 0.0848075 7.20057e-20)
(-0.0711791 0.0848275 3.86118e-20)
(-0.0717324 0.0831378 -1.22571e-19)
(-0.069317 0.0795124 4.35327e-20)
(-0.0642599 0.0737574 -9.10336e-20)
(-0.056839 0.0657263 0)
(-0.0473003 0.0553316 9.98592e-20)
(-0.0358725 0.0425513 -7.74455e-20)
(-0.0227771 0.027432 -1.06234e-19)
(-0.0082172 0.0100863 8.92265e-20)
(0.364777 0.0171968 0)
(0.268068 0.0276201 0)
(0.190116 0.0367116 5.98394e-20)
(0.124609 0.0446455 4.63494e-22)
(0.0721629 0.0518157 -7.31839e-20)
(0.0301039 0.0581648 0)
(-0.00277793 0.0638631 0)
(-0.0280462 0.0689357 0)
(-0.0468998 0.0733995 0)
(-0.060404 0.0771997 0)
(-0.0694331 0.0802281 0)
(-0.0747054 0.0823244 0)
(-0.0768012 0.0832886 0)
(-0.0761857 0.0828967 1.15517e-19)
(-0.0732315 0.0809193 -1.22269e-19)
(-0.0682391 0.0771395 4.33791e-20)
(-0.0614555 0.0713707 2.25985e-20)
(-0.0530893 0.0634701 0)
(-0.0433216 0.0533499 4.94324e-20)
(-0.0323153 0.0409836 -2.57146e-20)
(-0.0202309 0.0264026 0)
(-0.00722219 0.0096857 7.68944e-20)
(0.192939 0.0229571 -4.7841e-20)
(0.124476 0.0327865 0)
(0.0706683 0.0407393 0)
(0.026768 0.0476419 -6.71735e-20)
(-0.00724218 0.0536236 7.39089e-20)
(-0.0334826 0.0588471 0)
(-0.0529746 0.0634618 8.97987e-20)
(-0.0669353 0.0675379 -9.78889e-20)
(-0.0762933 0.0711027 5.32518e-20)
(-0.0818611 0.0741162 1.16003e-19)
(-0.084302 0.076481 -6.2669e-20)
(-0.0841595 0.0780481 0)
(-0.0818725 0.0786287 0)
(-0.077794 0.0780104 0)
(-0.0722078 0.0759742 4.0979e-20)
(-0.0653437 0.0723117 4.29116e-20)
(-0.057391 0.0668407 -2.27297e-20)
(-0.0485085 0.059418 1.18045e-19)
(-0.038831 0.0499487 -4.91087e-20)
(-0.0284731 0.0383939 -1.01398e-19)
(-0.0175538 0.0247596 0)
(-0.00619758 0.00908139 1.08749e-20)
(0.0589162 0.0273054 -1.53576e-22)
(0.0139173 0.0354624 0)
(-0.0202621 0.0419291 0)
(-0.0468723 0.0474789 6.76752e-20)
(-0.066303 0.0521537 -7.44427e-20)
(-0.0801174 0.0561844 4.0992e-20)
(-0.0891515 0.0597082 0)
(-0.0943188 0.0628131 -9.87188e-20)
(-0.0963244 0.0655307 1.06901e-19)
(-0.0957755 0.0678299 0)
(-0.0931675 0.0696233 -6.3005e-20)
(-0.0889062 0.0707738 6.75634e-20)
(-0.0833205 0.0711066 -1.08222e-19)
(-0.0766768 0.0704237 0)
(-0.0691919 0.0685199 4.0639e-20)
(-0.0610436 0.0651982 4.28244e-20)
(-0.0523798 0.0602831 -6.76982e-20)
(-0.0433256 0.0536318 -2.36176e-20)
(-0.0339854 0.0451425 -7.30097e-20)
(-0.0244424 0.0347615 1.00634e-19)
(-0.0147934 0.0224669 -1.03052e-19)
(-0.00515391 0.00824977 7.47108e-20)
(-0.0418384 0.0290666 2.46651e-22)
(-0.0680843 0.0351595 -3.77491e-22)
(-0.0866904 0.0400137 6.08925e-20)
(-0.0997781 0.0441388 0)
(-0.107888 0.0475491 -7.5176e-20)
(-0.112133 0.0504566 8.25772e-20)
(-0.113176 0.0529833 -1.81202e-19)
(-0.111681 0.0552165 9.88538e-20)
(-0.108171 0.0571878 -1.07928e-19)
(-0.103083 0.0588724 5.8308e-20)
(-0.0967774 0.0601938 0)
(-0.0895483 0.0610296 0)
(-0.0816361 0.0612228 -3.60802e-20)
(-0.0732385 0.0605949 7.6922e-20)
(-0.0645202 0.0589596 -4.08663e-20)
(-0.0556197 0.0561364 -2.13932e-20)
(-0.0466561 0.0519626 -2.25522e-20)
(-0.037733 0.0463013 0)
(-0.028937 0.0390495 0)
(-0.0203355 0.0301437 -1.24483e-20)
(-0.0120193 0.0195382 1.14925e-19)
(-0.00411407 0.00718583 -1.68395e-19)
(-0.112692 0.0278555 4.93024e-20)
(-0.124386 0.0319763 -1.10486e-19)
(-0.130993 0.0352961 9.16946e-20)
(-0.133854 0.0380931 -6.8288e-20)
(-0.133503 0.040375 -3.79296e-22)
(-0.130706 0.0423025 1.24274e-19)
(-0.125961 0.0439764 0)
(-0.119733 0.0454718 -2.49461e-20)
(-0.112386 0.0468168 5.39592e-20)
(-0.104221 0.047992 0)
(-0.0954839 0.0489328 0)
(-0.0863768 0.0495349 0)
(-0.077068 0.0496633 -1.80687e-20)
(-0.0677 0.0491634 0)
(-0.0583958 0.0478736 2.0321e-20)
(-0.0492643 0.0456362 2.14784e-20)
(-0.0404034 0.0423081 8.96389e-20)
(-0.0319031 0.0377673 -9.3364e-20)
(-0.0238422 0.0319192 -1.20475e-20)
(-0.0162826 0.0247005 1.24623e-20)
(-0.00932289 0.0160546 -1.2748e-20)
(-0.00311201 0.00591008 -7.28829e-20)
(-0.15536 0.0239623 0)
(-0.15634 0.0264484 -2.75271e-20)
(-0.154248 0.0284658 3.09003e-20)
(-0.149914 0.0301433 -6.80579e-20)
(-0.14376 0.0314924 3.76896e-20)
(-0.136289 0.0326222 4.16691e-20)
(-0.127844 0.0336096 -4.55165e-20)
(-0.118723 0.0345125 -7.48447e-20)
(-0.109157 0.0353535 -2.71997e-20)
(-0.0993335 0.0361183 -1.1811e-22)
(-0.0894035 0.0367555 3.1608e-20)
(-0.0794943 0.0371817 0)
(-0.0697155 0.0372872 -5.43679e-20)
(-0.0601652 0.0369457 9.62687e-20)
(-0.0509337 0.036024 -4.07421e-20)
(-0.0421065 0.0343926 -8.56219e-20)
(-0.0337654 0.0319341 6.95296e-23)
(-0.0259909 0.0285495 9.31895e-20)
(-0.0188571 0.0241637 1.20643e-20)
(-0.0124267 0.0187278 -1.23632e-20)
(-0.00681137 0.0121911 0)
(-0.00219056 0.00448053 5.16355e-21)
(-0.170277 0.0180689 2.44761e-20)
(-0.164276 0.019344 -2.26133e-22)
(-0.156733 0.0203763 6.13991e-20)
(-0.148147 0.0212098 0)
(-0.13879 0.0218624 -1.90118e-20)
(-0.128963 0.0224025 0)
(-0.118866 0.0228833 0)
(-0.108664 0.0233453 -7.50295e-20)
(-0.0984792 0.0238051 8.14799e-20)
(-0.0884055 0.0242531 0)
(-0.0785197 0.0246529 1.58901e-20)
(-0.0688893 0.0249436 6.80934e-20)
(-0.0595779 0.025044 5.5248e-23)
(-0.0506496 0.0248586 -7.717e-20)
(-0.0421698 0.0242856 3.05999e-20)
(-0.0342058 0.0232255 1.07147e-20)
(-0.0268267 0.0215896 -8.95329e-20)
(-0.0201035 0.0193061 1.86186e-19)
(-0.014105 0.0163275 -1.56367e-19)
(-0.00889225 0.0126318 1.8652e-20)
(-0.00458581 0.0081965 5.68406e-20)
(-0.0013914 0.00297914 -5.15228e-21)
(-0.157329 0.0113381 2.48114e-20)
(-0.148135 0.0118334 -1.39115e-20)
(-0.138444 0.0122245 -1.54458e-20)
(-0.128556 0.0125124 0)
(-0.118596 0.0127189 3.80763e-20)
(-0.108715 0.0128826 -4.17366e-20)
(-0.0989995 0.0130361 -1.14773e-20)
(-0.089514 0.0132044 -2.51559e-20)
(-0.0802973 0.0133984 1.09098e-19)
(-0.0713756 0.0136138 1.49117e-20)
(-0.0627704 0.0138295 -4.76842e-20)
(-0.054505 0.0140086 8.53971e-21)
(-0.0466093 0.0140997 9.11521e-21)
(-0.039122 0.0140401 -9.67506e-20)
(-0.0320903 0.0137606 7.15298e-20)
(-0.0255685 0.0131919 -1.0735e-20)
(-0.0196154 0.0122716 4.48453e-20)
(-0.0142928 0.0109527 -5.68533e-23)
(-0.00966004 0.0092124 -3.61491e-20)
(-0.00576903 0.00705834 4.32187e-20)
(-0.00273157 0.00450817 -1.00953e-19)
(-0.000754855 0.00157865 4.37548e-20)
(-0.116376 0.00486211 2.90134e-22)
(-0.107871 0.00495207 -4.15365e-20)
(-0.0994026 0.00500238 3.88785e-20)
(-0.0911766 0.00501003 -7.74735e-20)
(-0.0832061 0.0049937 1.89153e-20)
(-0.0755463 0.00497173 0)
(-0.0682096 0.0049587 1.72818e-20)
(-0.0611981 0.00496547 -4.41175e-20)
(-0.0545017 0.00499748 1.02614e-19)
(-0.0481067 0.00505409 -1.46618e-20)
(-0.0420018 0.00512791 -6.38091e-20)
(-0.0361828 0.00520439 3.00082e-20)
(-0.0306566 0.00526168 -4.56717e-20)
(-0.0254426 0.00527095 4.36806e-20)
(-0.0205732 0.00519758 -4.09845e-20)
(-0.0160913 0.00500356 0)
(-0.0120472 0.00465171 -4.49461e-20)
(-0.00849449 0.00411241 4.67296e-20)
(-0.00548281 0.00337465 -3.02242e-21)
(-0.00304883 0.00245905 0)
(-0.00126654 0.00141913 -6.31686e-21)
(-0.000293974 0.000364801 -2.56965e-21)
(-0.0479196 0.000660718 2.44237e-20)
(-0.0439384 0.000657996 -2.67608e-20)
(-0.040035 0.000647162 3.78788e-20)
(-0.0363611 0.000627099 -5.86012e-20)
(-0.0328903 0.000605194 1.84437e-20)
(-0.0296345 0.00058557 4.06597e-20)
(-0.0265812 0.000570967 -2.77663e-20)
(-0.0237154 0.000563478 -3.03867e-20)
(-0.0210178 0.000564569 3.28883e-20)
(-0.0184688 0.000575084 0)
(-0.0160507 0.000595035 0)
(-0.0137503 0.000623266 -4.0957e-21)
(-0.0115612 0.000656985 3.41772e-23)
(-0.00948499 0.000691189 -4.66503e-21)
(-0.00753297 0.000718078 -3.91461e-20)
(-0.00572638 0.000726665 4.11158e-20)
(-0.0040961 0.000703012 0)
(-0.00268127 0.000631903 0)
(-0.00152441 0.000501771 -4.31415e-20)
(-0.000661817 0.00031363 4.7352e-20)
(-0.000131168 9.27285e-05 4.83447e-20)
(1.678e-05 -7.54974e-05 -3.98177e-20)
(1.13634 0.0257143 2.0427e-24)
(1.09028 0.0274389 0)
(1.04218 0.0292087 2.21747e-20)
(0.991938 0.0310252 2.53302e-20)
(0.939655 0.0328941 0)
(0.88542 0.0348221 3.25702e-20)
(0.829323 0.0368122 -3.73638e-20)
(0.771472 0.0388655 -1.15858e-21)
(0.711986 0.0409815 9.126e-20)
(0.650994 0.0431575 -2.5035e-20)
(0.58864 0.0453858 3.39636e-24)
(0.525091 0.0476423 0)
(0.460564 0.0498633 -4.9587e-20)
(0.395391 0.0519065 5.28221e-20)
(0.330123 0.0535086 0)
(0.265663 0.0542574 4.03851e-20)
(0.203374 0.0536037 -4.21763e-20)
(0.14514 0.0509169 0)
(0.0932228 0.0455802 1.14583e-20)
(0.0500228 0.037095 0)
(0.0187797 0.025144 -2.99569e-24)
(0.00353308 0.00964133 0)
(1.14082 0.0816868 6.52413e-20)
(1.09522 0.0875285 -7.75199e-20)
(1.04773 0.0936426 2.1223e-20)
(0.998077 0.0999989 2.60757e-20)
(0.946382 0.106591 -5.64194e-20)
(0.892736 0.113422 -3.25657e-20)
(0.83723 0.120489 3.6167e-20)
(0.779971 0.127787 4.04559e-20)
(0.721078 0.135307 -2.28068e-20)
(0.660681 0.143034 1.00518e-19)
(0.598922 0.150936 -5.45686e-20)
(0.535963 0.158924 0)
(0.472006 0.166771 4.86471e-20)
(0.407351 0.173978 -5.23397e-20)
(0.342493 0.17964 3.70681e-20)
(0.278241 0.182352 0)
(0.215836 0.180265 0)
(0.157016 0.171271 -2.16456e-20)
(0.103897 0.153323 7.99428e-20)
(0.0587543 0.12477 -9.39785e-20)
(0.0247383 0.0845752 7.35666e-20)
(0.0058469 0.0324647 -1.68917e-19)
(1.14957 0.137657 6.66444e-20)
(1.10493 0.147632 -1.87944e-19)
(1.05869 0.158013 8.51689e-20)
(1.01022 0.168791 0)
(0.959703 0.179955 -5.55294e-20)
(0.907249 0.191517 0)
(0.852943 0.203475 -3.40547e-20)
(0.796894 0.215822 -1.98205e-19)
(0.739221 0.228546 9.00843e-20)
(0.680054 0.241623 -4.73912e-20)
(0.619529 0.255001 -2.15843e-19)
(0.557798 0.26853 1.16635e-19)
(0.495033 0.281823 -3.222e-20)
(0.431467 0.294037 -3.27782e-20)
(0.367473 0.30363 1.10165e-19)
(0.303671 0.308226 -1.5453e-19)
(0.241048 0.304693 0)
(0.18105 0.28947 -1.07868e-19)
(0.125499 0.259103 1.77245e-19)
(0.0764192 0.210818 0)
(0.0367878 0.142882 -7.11596e-20)
(0.0105243 0.0548431 1.46032e-19)
(1.16166 0.190884 -1.29619e-19)
(1.11857 0.204872 2.1615e-19)
(1.07429 0.219379 8.28143e-20)
(1.02768 0.234459 0)
(0.979013 0.250088 -5.57564e-20)
(0.928407 0.266277 -3.82553e-21)
(0.87595 0.283026 2.07151e-19)
(0.821756 0.300322 7.86598e-20)
(0.765945 0.318151 -2.58982e-19)
(0.708647 0.336479 -4.18839e-21)
(0.649996 0.355231 2.06756e-19)
(0.590127 0.3742 -1.73785e-19)
(0.529167 0.392842 1.84212e-19)
(0.467253 0.409973 6.73083e-20)
(0.404574 0.423436 1.41865e-19)
(0.341468 0.429901 1.1567e-21)
(0.278544 0.424988 -1.9524e-19)
(0.21681 0.403729 -4.19104e-20)
(0.15765 0.361318 0)
(0.102717 0.293916 4.30415e-20)
(0.0547283 0.199143 4.43491e-20)
(0.0174863 0.0764114 -1.30794e-19)
(1.17707 0.241503 2.45036e-19)
(1.13604 0.259374 -3.55492e-19)
(1.09436 0.277807 5.76925e-22)
(1.05021 0.296985 1.88269e-19)
(1.004 0.316861 -2.02688e-19)
(0.95584 0.337452 3.56705e-21)
(0.905833 0.358758 -1.31324e-19)
(0.854097 0.380768 1.50628e-19)
(0.800756 0.403462 -7.89688e-20)
(0.745939 0.426802 8.87992e-20)
(0.689776 0.450693 9.72547e-20)
(0.632379 0.47487 -5.55279e-20)
(0.573821 0.498644 6.00748e-20)
(0.514106 0.520503 2.53468e-19)
(0.453185 0.537691 -3.32785e-19)
(0.39102 0.545963 6.89349e-20)
(0.327722 0.539732 -3.40463e-20)
(0.263721 0.512685 0)
(0.199828 0.458734 -3.91734e-20)
(0.137213 0.373047 1.65543e-19)
(0.0782576 0.252664 -4.28904e-20)
(0.0266113 0.0969031 -1.41697e-19)
(1.19535 0.288223 -1.0684e-21)
(1.15692 0.309804 0)
(1.11846 0.331927 1.57955e-19)
(1.07736 0.354969 0)
(1.03417 0.378853 1.02127e-19)
(0.989049 0.403598 0)
(0.942072 0.429208 -3.79016e-19)
(0.893371 0.455672 4.15471e-19)
(0.843076 0.482968 -1.57984e-19)
(0.791318 0.511053 3.39492e-19)
(0.73822 0.539818 -3.74996e-19)
(0.683873 0.568947 0)
(0.628278 0.597612 0)
(0.571281 0.623994 -2.37948e-19)
(0.51254 0.644769 3.16297e-19)
(0.451553 0.654814 -6.87449e-20)
(0.387818 0.647396 3.51942e-19)
(0.321055 0.614923 -5.82769e-19)
(0.251376 0.550106 3.41071e-19)
(0.179364 0.447207 -4.04477e-20)
(0.106998 0.302766 -3.85919e-20)
(0.037747 0.116053 1.33159e-19)
(1.21607 0.330469 -4.22734e-22)
(1.18075 0.35553 -1.25282e-19)
(1.14606 0.381045 0)
(1.10852 0.407658 0)
(1.06889 0.43525 0)
(1.02732 0.463845 1.02552e-19)
(0.983896 0.493452 2.36812e-19)
(0.938761 0.524059 -1.3605e-19)
(0.892049 0.555645 -4.36427e-19)
(0.843892 0.588161 7.36294e-20)
(0.794409 0.621486 2.65141e-19)
(0.743663 0.655261 0)
(0.691574 0.688532 0)
(0.637806 0.719199 0)
(0.581666 0.743407 1.1148e-19)
(0.522112 0.755205 0)
(0.457913 0.74678 -6.12408e-20)
(0.387958 0.709333 -6.36267e-20)
(0.311538 0.634465 0)
(0.228557 0.515621 0)
(0.140534 0.348929 -2.58256e-19)
(0.0507289 0.133669 2.14534e-19)
(1.23856 0.367542 0)
(1.20684 0.395838 0)
(1.17644 0.42443 -1.3188e-19)
(1.14296 0.454292 -1.57186e-19)
(1.10738 0.485247 1.81069e-19)
(1.06985 0.517328 -1.06167e-19)
(1.03046 0.550554 -1.13807e-19)
(0.989371 0.584918 -2.46977e-19)
(0.946719 0.6204 4.078e-19)
(0.902642 0.656956 -2.98476e-19)
(0.857256 0.694456 3.21103e-19)
(0.810597 0.732508 0)
(0.762501 0.770055 8.9538e-20)
(0.712426 0.804743 0)
(0.659291 0.832232 -2.11405e-19)
(0.601436 0.845802 0)
(0.536797 0.836622 6.24446e-21)
(0.46331 0.794771 -1.77017e-19)
(0.379332 0.710823 2.49225e-19)
(0.284006 0.577507 1.97297e-19)
(0.178335 0.390627 -5.30762e-19)
(0.065349 0.149548 4.69273e-19)
(1.26205 0.398876 5.77106e-21)
(1.23439 0.430077 -3.30238e-19)
(1.2087 0.461377 3.76528e-19)
(1.17967 0.494133 0)
(1.14855 0.528099 3.30637e-19)
(1.11546 0.563319 -3.66782e-19)
(1.08053 0.599816 1.93568e-19)
(1.04393 0.637582 0)
(1.00579 0.676599 1.17764e-19)
(0.966264 0.716822 0)
(0.92546 0.758118 -4.3326e-19)
(0.883384 0.80007 -1.512e-19)
(0.839781 0.84154 4.9771e-19)
(0.79389 0.87996 -1.79531e-19)
(0.744198 0.910555 1.10252e-20)
(0.688357 0.925906 1.96579e-19)
(0.623373 0.916239 5.26636e-20)
(0.546112 0.870593 -2.12853e-19)
(0.453893 0.77861 0)
(0.345021 0.6324 6.01734e-20)
(0.219941 0.427548 5.3691e-20)
(0.0814286 0.163579 4.49324e-20)
(1.28566 0.424318 0)
(1.26255 0.458139 -1.04251e-20)
(1.24198 0.491795 1.08358e-19)
(1.21783 0.527044 1.25657e-19)
(1.19155 0.563569 0)
(1.16328 0.601439 1.57559e-19)
(1.13315 0.640694 -1.91334e-19)
(1.10135 0.68134 1.07158e-19)
(1.06805 0.723368 -3.37256e-19)
(1.03339 0.766742 0)
(0.997493 0.811334 -1.24479e-22)
(0.960347 0.856718 2.96936e-19)
(0.921609 0.901702 -9.09534e-21)
(0.880296 0.943544 0)
(0.834444 0.977098 1.13541e-20)
(0.780957 0.994304 1.69907e-19)
(0.71582 0.984518 -1.78207e-19)
(0.634713 0.93581 0)
(0.533805 0.836977 0)
(0.41049 0.679615 -4.34779e-20)
(0.264616 0.459212 -8.8413e-21)
(0.0986812 0.175567 -7.42022e-21)
(1.30848 0.443381 0)
(1.29029 0.479374 -1.93942e-19)
(1.27502 0.515 0)
(1.25596 0.552416 -1.23973e-19)
(1.23481 0.591207 0)
(1.21167 0.631442 -1.55471e-19)
(1.18671 0.673161 8.96764e-21)
(1.16011 0.716369 -8.47589e-20)
(1.13205 0.761063 0)
(1.10269 0.807212 0)
(1.07216 0.854694 -1.42001e-20)
(1.0404 0.903085 1.61312e-20)
(1.00701 0.951159 5.12159e-20)
(0.970765 0.996046 0)
(0.929219 1.03229 1.40875e-19)
(0.878474 1.05128 1.42736e-19)
(0.813402 1.04158 -1.49863e-19)
(0.7284 0.990414 6.74906e-20)
(0.618401 0.885827 -1.17722e-19)
(0.47984 0.719014 7.89428e-20)
(0.311954 0.485496 1.15975e-19)
(0.116945 0.18547 -7.69502e-21)
(1.32961 0.456809 -1.49347e-19)
(1.31692 0.494747 3.96927e-21)
(1.30734 0.53192 1.92483e-19)
(1.2937 0.570941 -3.19865e-19)
(1.27787 0.611352 2.32306e-19)
(1.25999 0.653271 0)
(1.24026 0.696761 1.56315e-20)
(1.21892 0.741842 0)
(1.19616 0.788526 -1.72924e-19)
(1.17216 0.836791 8.88455e-20)
(1.14706 0.886537 9.3504e-20)
(1.12082 0.93736 -9.48477e-20)
(1.09296 0.98804 3.20423e-19)
(1.06204 1.03564 -2.31168e-19)
(1.02517 1.07446 -6.40526e-20)
(0.97762 1.0954 0)
(0.913062 1.08629 0)
(0.824486 1.03351 -1.83471e-19)
(0.705461 0.924439 3.59378e-20)
(0.551382 0.750006 8.55845e-20)
(0.360859 0.505947 -1.50074e-19)
(0.135795 0.193081 -1.3535e-19)
(1.34807 0.463456 -2.60512e-19)
(1.34097 0.502878 3.13844e-19)
(1.33699 0.541486 -3.33913e-19)
(1.32896 0.582079 0)
(1.31878 0.624093 -2.18687e-19)
(1.30656 0.667645 5.74243e-21)
(1.2925 0.712805 2.64446e-19)
(1.27688 0.759604 -1.3981e-19)
(1.2599 0.808063 0)