/*--------------------------------*- C++ -*----------------------------------*\
| =========                 |                                                 |
| \\      /  F ield         | OpenFOAM Extend Project: Open source CFD        |
|  \\    /   O peration     | Version:  1.6-ext                               |
|   \\  /    A nd           | Web:      www.extend-project.de                 |
|    \\/     M anipulation  |                                                 |
\*---------------------------------------------------------------------------*/
FoamFile
{
    version     2.0;
    format      ascii;
    class       volVectorField;
    location    "0.65";
    object      U_0;
}
// * * * * * * * * * * * * * * * * * * * * * * * * * * * * * * * * * * * * * //

dimensions      [0 1 -1 0 0 0 0];

internalField   nonuniform List<vector> 
20940
(
(1.8519 0.396277 0)
(1.89176 0.416385 0)
(1.92951 0.435784 0)
(1.96431 0.453427 4.99957e-21)
(1.99586 0.469525 5.89168e-24)
(2.02255 0.482961 -7.6308e-24)
(2.04139 0.492632 -1.08313e-20)
(2.04758 0.496596 5.2036e-21)
(2.03473 0.49262 -7.80147e-22)
(1.99571 0.478457 -8.19119e-22)
(1.92424 0.452551 3.20848e-20)
(1.81668 0.41465 -3.70723e-20)
(1.67342 0.366164 2.11875e-20)
(1.49931 0.310073 -2.37457e-20)
(1.30282 0.250384 1.7114e-20)
(1.09443 0.191365 -9.4208e-24)
(0.884715 0.136837 -1.01599e-23)
(0.682845 0.08972 1.09968e-20)
(0.495684 0.0518406 -1.14197e-20)
(0.327574 0.0239835 5.91637e-21)
(0.180567 0.00663661 -1.25074e-23)
(0.0548854 0.000490115 0)
(1.87887 0.372722 -8.79987e-21)
(1.91746 0.391683 1.87396e-20)
(1.95363 0.409278 -1.54389e-20)
(1.98626 0.425145 -1.63298e-20)
(2.01454 0.438952 -1.28498e-21)
(2.03598 0.449501 1.73e-20)
(2.04658 0.455387 0)
(2.0406 0.454576 -1.35239e-20)
(2.01125 0.444997 1.47225e-20)
(1.95198 0.424955 0)
(1.85825 0.393791 -1.0622e-20)
(1.72908 0.352302 3.6284e-20)
(1.56782 0.302798 2.04622e-20)
(1.38181 0.248732 2.33575e-20)
(1.1809 0.194019 -4.94736e-20)
(0.975708 0.142342 1.78487e-20)
(0.775874 0.0966314 0)
(0.589035 0.0588554 -1.08144e-20)
(0.420397 0.0300032 4.4022e-20)
(0.272844 0.0102316 -2.88235e-20)
(0.147362 -0.000392367 0)
(0.0435685 -0.00142088 9.81611e-21)
(1.90361 0.349121 1.88372e-20)
(1.94061 0.367007 1.33115e-21)
(1.97466 0.382907 2.60791e-20)
(2.00427 0.397016 2.2913e-20)
(2.02787 0.408434 -1.64357e-20)
(2.04196 0.415879 3.46291e-20)
(2.04149 0.417703 -2.04754e-20)
(2.02008 0.411942 2.72752e-20)
(1.97111 0.396898 -2.96965e-20)
(1.88941 0.371623 -1.46618e-21)
(1.77284 0.336435 -2.50038e-21)
(1.62344 0.293069 2.22945e-20)
(1.44734 0.24445 1.46101e-20)
(1.2537 0.194126 3.09049e-20)
(1.05294 0.145595 -4.71712e-20)
(0.855017 0.101761 3.45652e-20)
(0.668151 0.0646468 -9.32487e-20)
(0.498258 0.0353716 2.93498e-20)
(0.348928 0.0142545 2.0573e-20)
(0.221752 0.000995746 0)
(0.116841 -0.00463419 4.63412e-20)
(0.0333529 -0.00238089 -5.73598e-20)
(1.9272 0.325847 -1.0022e-20)
(1.96216 0.342734 -1.35124e-20)
(1.99327 0.356982 -1.86386e-20)
(2.01856 0.369242 -8.2141e-22)
(2.03543 0.378041 -3.1201e-20)
(2.03928 0.382048 -2.27395e-21)
(2.02421 0.379494 4.41204e-20)
(1.9837 0.368692 0)
(1.91213 0.348542 -3.31544e-20)
(1.80652 0.318991 7.01967e-20)
(1.66772 0.2813 6.0001e-22)
(1.50077 0.23792 -4.71287e-20)
(1.31405 0.192028 1.28997e-19)
(1.11769 0.146906 -8.47197e-20)
(0.921769 0.105386 6.25216e-20)
(0.734929 0.0695125 -8.31335e-20)
(0.563642 0.0404647 -5.38571e-20)
(0.412072 0.0186613 1.52124e-19)
(0.282331 0.00392459 -1.81178e-19)
(0.17493 -0.00434693 8.36857e-20)
(0.0893068 -0.00656418 -2.27691e-20)
(0.0243047 -0.00258938 4.58264e-20)
(1.94937 0.302976 -4.08222e-21)
(1.98163 0.318865 6.00116e-20)
(2.00866 0.331422 -6.07775e-20)
(2.02776 0.34164 2.02188e-20)
(2.03514 0.347508 2.87511e-20)
(2.02519 0.347734 3.64408e-20)
(1.99163 0.340614 -4.39429e-20)
(1.92858 0.324974 -5.42287e-20)
(1.83236 0.300494 -3.44302e-20)
(1.70289 0.268045 3.35245e-20)
(1.5442 0.229664 -4.03001e-20)
(1.36392 0.188176 -9.08617e-20)
(1.1718 0.146634 4.88436e-20)
(0.977925 0.107766 -2.66003e-20)
(0.791245 0.0736093 0)
(0.618658 0.0453841 0)
(0.464782 0.0235599 3.33187e-20)
(0.332149 0.00803256 3.54083e-20)
(0.221633 -0.00170515 0)
(0.132908 -0.00642209 -1.00367e-19)
(0.0649492 -0.00661708 4.13021e-20)
(0.0164274 -0.00221047 -1.70798e-20)
(1.96961 0.280581 2.35349e-20)
(1.9982 0.295429 -3.1427e-20)
(2.01946 0.30616 0)
(2.02977 0.314038 0)
(2.02414 0.316606 0)
(1.99638 0.312778 -1.35285e-21)
(1.94052 0.301144 4.42959e-20)
(1.85237 0.281257 1.49924e-21)
(1.73103 0.253657 0)
(1.57968 0.220026 -3.5394e-20)
(1.40525 0.182866 7.56648e-20)
(1.21709 0.144997 -4.22874e-20)
(1.02525 0.109027 4.83897e-20)
(0.838849 0.0769614 7.74017e-20)
(0.66514 0.0500433 0)
(0.509101 0.0287879 -6.12391e-20)
(0.373596 0.0131304 3.118e-20)
(0.259776 0.00261873 -3.53385e-20)
(0.167552 -0.00343979 0)
(0.0960177 -0.00587707 -5.73501e-20)
(0.0438668 -0.00521439 9.96528e-20)
(0.00971903 -0.0013953 8.38535e-20)
(1.98751 0.258477 0)
(2.01087 0.272107 1.25645e-21)
(2.02387 0.280756 -4.04644e-20)
(2.02194 0.285939 0)
(1.99917 0.284912 -1.29657e-19)
(1.94947 0.277002 1.88768e-19)
(1.86827 0.261318 -1.32728e-19)
(1.75401 0.23826 1.01013e-19)
(1.60913 0.209161 2.68766e-21)
(1.43992 0.176241 -6.52626e-20)
(1.25537 0.142094 0)
(1.06542 0.109198 1.25887e-19)
(0.879365 0.0795095 -8.98968e-20)
(0.704705 0.0542818 -1.50951e-19)
(0.546718 0.0340678 5.38619e-20)
(0.408533 0.0188464 0)
(0.29151 0.00819654 -3.0314e-20)
(0.195729 0.00146893 0)
(0.120425 -0.00210298 0)
(0.0643312 -0.00334201 -3.56447e-20)
(0.0260158 -0.00275152 -3.71591e-20)
(0.00413393 -0.000280289 -1.55841e-20)
(2.00157 0.23661 -5.96413e-20)
(2.01747 0.248784 -2.99065e-21)
(2.01893 0.255048 -2.91571e-21)
(2.00065 0.25719 0)
(1.95643 0.252438 6.32891e-20)
(1.88139 0.240754 -1.52854e-19)
(1.77339 0.221924 1.73131e-19)
(1.63423 0.197172 0)
(1.46966 0.16839 0)
(1.28831 0.137978 -6.38416e-20)
(1.10007 0.10827 7.29115e-20)
(0.914329 0.0811668 -7.85729e-20)
(0.738834 0.0579196 0)
(0.579105 0.0391116 -4.66494e-20)
(0.438484 0.0247653 1.02921e-19)
(0.318496 0.0145013 0)
(0.219331 0.00769736 1.49295e-19)
(0.140309 0.00362319 -2.82032e-19)
(0.0802491 0.00151435 2.65267e-19)
(0.0377081 0.000600669 -2.06838e-19)
(0.0112411 0.000417405 1.09287e-19)
(-0.0004051 0.00101642 7.66407e-20)
(2.01057 0.214425 1.23227e-19)
(2.01574 0.22477 -1.47418e-19)
(2.00151 0.228324 4.45804e-20)
(1.96238 0.227281 1.40705e-21)
(1.89292 0.219078 -6.23224e-20)
(1.79059 0.204455 0)
(1.65657 0.183884 -1.73708e-19)
(1.49612 0.159216 0)
(1.31758 0.132561 0)
(1.13078 0.106145 6.33316e-20)
(0.94526 0.0817951 -1.38761e-19)
(0.768954 0.0607553 7.56949e-20)
(0.607616 0.0436354 0)
(0.464773 0.0305014 4.63501e-20)
(0.342076 0.0210212 -1.76373e-21)
(0.239791 0.0146141 0)
(0.157281 0.0105762 1.13902e-19)
(0.0933971 0.00817541 -8.87517e-20)
(0.0467437 0.00669519 -3.1139e-20)
(0.0158403 0.00543966 6.66505e-20)
(-0.000696016 0.00398987 1.3958e-19)
(-0.00399682 0.00239704 -8.78563e-20)
(2.01106 0.191995 6.02916e-20)
(2.00166 0.200214 3.51306e-20)
(1.96733 0.200929 4.46993e-20)
(1.90346 0.196824 -1.20471e-21)
(1.80654 0.185813 -6.50553e-20)
(1.67739 0.169445 -7.50088e-20)
(1.52073 0.148742 8.5874e-20)
(1.3447 0.125863 -9.65806e-20)
(1.15911 0.102791 1.10338e-19)
(0.973633 0.0813145 -2.42523e-19)
(0.796456 0.0626482 2.68363e-19)
(0.633549 0.0474259 -7.29987e-20)
(0.488613 0.0357549 7.936e-20)
(0.363409 0.0273527 0)
(0.258256 0.0216876 -1.43208e-19)
(0.172535 0.0180974 2.53027e-19)
(0.105092 0.0158769 1.3971e-21)
(0.0545361 0.014339 -2.30506e-19)
(0.0194139 0.0128375 1.81968e-19)
(-0.00170281 0.0107574 -1.60863e-19)
(-0.0100913 0.00772487 2.33699e-19)
(-0.00675351 0.00378625 -1.6871e-19)
(2.00139 0.168293 6.28209e-20)
(1.9726 0.174134 0)
(1.91396 0.17213 -4.88425e-20)
(1.82259 0.165602 5.19504e-20)
(1.69814 0.153015 1.27426e-19)
(1.54513 0.136532 7.41674e-20)
(1.37135 0.117453 0)
(1.1867 0.0978882 1.90072e-19)
(1.00103 0.0794364 -5.26688e-20)
(0.822806 0.0633298 -5.82962e-20)
(0.658243 0.0502074 0)
(0.511223 0.0402213 0)
(0.383606 0.0331404 -1.5518e-19)
(0.275755 0.0284874 0)
(0.187049 0.0256505 4.48366e-20)
(0.116313 0.0239672 -4.959e-20)
(0.0621317 0.0227787 -5.14144e-20)
(0.0230394 0.0214669 1.65998e-19)
(-0.00237119 0.0194628 -1.46196e-19)
(-0.0154228 0.0162312 -3.02199e-20)
(-0.0172696 0.0114405 3.26182e-20)
(-0.00879167 0.00512853 2.77484e-20)
(1.97552 0.144464 0)
(1.92393 0.148032 0)
(1.83825 0.14383 -4.93411e-20)
(1.71928 0.135772 -5.80079e-20)
(1.57013 0.122896 0)
(1.39876 0.107733 -7.46371e-20)
(1.21493 0.0915837 1.64745e-19)
(1.02888 0.0762333 -1.85884e-19)
(0.849388 0.0627726 1.56209e-19)
(0.682985 0.0518854 5.93563e-20)
(0.533767 0.0437456 1.80342e-21)
(0.403717 0.0381721 -1.36449e-19)
(0.293232 0.0347387 1.5106e-19)
(0.201681 0.0328856 -8.0645e-20)
(0.127854 0.0319977 -4.43872e-20)
(0.0702939 0.0314566 9.46302e-20)
(0.0275043 0.0306717 -9.86046e-20)
(-0.00193609 0.0290999 -1.06902e-19)
(-0.0193284 0.0262479 0)
(-0.0258644 0.0216544 3.00769e-20)
(-0.0225742 0.0150267 -1.23979e-19)
(-0.0102324 0.00639382 -2.63481e-20)
(1.9353 0.118518 0)
(1.85627 0.120164 0)
(1.74268 0.114765 -9.88854e-20)
(1.59796 0.106559 2.77458e-19)
(1.42894 0.0950991 -6.2889e-20)
(1.24588 0.082793 -7.26336e-20)
(1.05913 0.0707334 -2.7567e-22)
(0.878001 0.0602013 -3.22039e-22)
(0.709389 0.0517962 -1.01668e-19)
(0.557674 0.0457531 -5.66227e-20)
(0.424982 0.0419308 2.43492e-19)
(0.311759 0.0399597 -2.66097e-19)
(0.217356 0.0393341 2.16767e-19)
(0.140516 0.0394903 -7.68485e-20)
(0.0797278 0.0398558 9.33502e-22)
(0.0334464 0.0398779 -9.03886e-20)
(0.000218895 0.03904 -4.83749e-20)
(-0.0212655 0.0368718 2.58493e-19)
(-0.0321719 0.0329498 -5.4676e-20)
(-0.0335545 0.0268805 -1.14777e-19)
(-0.026329 0.0184094 8.95909e-20)
(-0.0111854 0.00756172 2.60578e-20)
(1.8705 0.0948584 0)
(1.76657 0.0952488 1.71604e-21)
(1.62675 0.0894619 -1.92502e-19)
(1.46154 0.0821128 1.11934e-19)
(1.2796 0.0729662 0)
(1.0924 0.0641105 7.15466e-20)
(0.909488 0.0563506 -1.60872e-19)
(0.738417 0.050423 8.83189e-20)
(0.583898 0.0465183 1.9646e-19)
(0.448291 0.0445402 1.61789e-19)
(0.332125 0.0441562 0)
(0.234754 0.0449089 0)
(0.154877 0.0462817 6.96798e-20)
(0.0909184 0.0477454 1.521e-19)
(0.0412752 0.0487843 0)
(0.00444936 0.0489113 -8.83676e-20)
(-0.0208964 0.0476755 9.35387e-20)
(-0.0359304 0.0446688 1.00191e-19)
(-0.0416744 0.0395272 -5.26668e-20)
(-0.0390524 0.0319166 -5.56759e-20)
(-0.0288784 0.0216184 1.45342e-19)
(-0.011774 0.0086569 -9.98606e-20)
(1.79777 0.0676324 0)
(1.66324 0.0676596 8.2838e-20)
(1.50138 0.0637645 9.61733e-20)
(1.321 0.0585066 -1.10282e-19)
(1.13276 0.0532067 -6.32334e-20)
(0.94756 0.0487847 6.95391e-20)
(0.773282 0.0458139 0)
(0.615208 0.0444796 0)
(0.475965 0.0446891 -9.54669e-20)
(0.356243 0.0461671 -2.1015e-19)
(0.255427 0.0485267 0)
(0.172183 0.0513261 1.88169e-19)
(0.104864 0.0541016 -3.40628e-19)
(0.0517896 0.0563893 7.23634e-20)
(0.0113903 0.0577379 7.96657e-20)
(-0.0177199 0.0577181 -4.2522e-20)
(-0.0367344 0.0559301 4.51024e-20)
(-0.046673 0.0520118 0)
(-0.0484197 0.0456451 0)
(-0.0427787 0.0365466 -1.61939e-19)
(-0.0304763 0.0245346 1.398e-19)
(-0.0120819 0.00964197 -7.36002e-20)
(1.64995 0.0482043 -4.02159e-20)
(1.4844 0.0455724 4.4406e-20)
(1.30221 0.0436936 -1.58252e-19)
(1.11455 0.0414335 -6.10032e-20)
(0.930897 0.0403569 -1.33655e-19)
(0.759064 0.0403865 -7.44171e-20)
(0.60375 0.0417269 0)
(0.467343 0.0442005 -3.90568e-22)
(0.350291 0.0475679 2.98928e-19)
(0.25182 0.0515082 0)
(0.170463 0.0556619 0)
(0.104476 0.0596464 -1.29407e-19)
(0.0521007 0.0630667 0)
(0.0117181 0.0655252 0)
(-0.0180879 0.0666309 -8.13101e-20)
(-0.0385168 0.0660101 8.5738e-20)
(-0.0505736 0.0633173 -1.38743e-19)
(-0.0551062 0.0582479 1.45425e-19)
(-0.0528498 0.0505483 1.02612e-19)
(-0.0444818 0.0400149 -1.06762e-19)
(-0.0306306 0.0265426 -5.21047e-22)
(-0.0118106 0.0102149 -2.42729e-20)
(1.39687 0.0268066 1.25829e-19)
(1.21264 0.026617 -4.73703e-20)
(1.02867 0.029147 1.0737e-19)
(0.852363 0.0312361 1.21411e-19)
(0.690079 0.0347605 1.36103e-19)
(0.545307 0.0387805 1.5216e-19)
(0.419439 0.043478 3.63114e-22)
(0.312281 0.0485601 -1.84885e-19)
(0.222658 0.053834 -1.0146e-19)
(0.148894 0.0590455 1.11116e-19)
(0.0891614 0.0639208 -5.93828e-20)
(0.0416937 0.0681591 -6.48064e-20)
(0.00490353 0.0714405 7.03476e-20)
(-0.0225711 0.0734343 0)
(-0.0418663 0.0738116 8.15857e-20)
(-0.0539176 0.0722589 -2.14463e-23)
(-0.0594982 0.0684932 4.43089e-22)
(-0.0592607 0.0622764 -2.42868e-19)
(-0.0537779 0.0534269 1.01559e-19)
(-0.0435848 0.0418216 2.63165e-20)
(-0.0291843 0.0274303 -2.77216e-20)
(-0.0109995 0.0103693 9.42822e-20)
(1.11178 0.0152452 0)
(0.931982 0.0181094 1.00578e-19)
(0.766044 0.0245285 -5.66062e-20)
(0.614614 0.0298447 -6.36975e-20)
(0.48164 0.0362884 0)
(0.367027 0.0426105 7.76198e-20)
(0.270276 0.0490555 -8.55752e-20)
(0.189842 0.0553516 1.88019e-19)
(0.12396 0.0613734 0)
(0.0707794 0.0669296 0)
(0.0285785 0.0718105 1.21923e-19)
(-0.00416731 0.0757732 0)
(-0.0287515 0.0785498 -7.13828e-20)
(-0.0462434 0.0798572 -7.60325e-20)
(-0.057514 0.0794113 0)
(-0.063271 0.0769437 -4.36197e-20)
(-0.0640978 0.0722178 -1.37589e-19)
(-0.0604896 0.0650453 9.64364e-20)
(-0.0528857 0.0552974 0)
(-0.0417011 0.0429094 -1.5784e-19)
(-0.0273306 0.0279019 2.44417e-19)
(-0.0101168 0.0104071 -9.24993e-20)
(0.831044 0.0104801 9.12489e-20)
(0.672665 0.0170585 -1.02389e-19)
(0.535243 0.0259607 0)
(0.413906 0.0334457 1.93088e-19)
(0.311198 0.0413274 -7.11728e-20)
(0.224907 0.048626 -2.56211e-23)
(0.153801 0.0555926 0)
(0.0959006 0.0620618 -1.91132e-19)
(0.0494484 0.0679817 1.0404e-19)
(0.0127755 0.0732274 5.66335e-20)
(-0.0155605 0.0776426 -6.17197e-20)
(-0.0367812 0.0810278 0)
(-0.0518926 0.0831504 -7.13094e-20)
(-0.0617096 0.0837572 7.69777e-20)
(-0.0668881 0.0825916 1.22574e-19)
(-0.0679579 0.0794119 2.58745e-22)
(-0.0653553 0.0740091 -4.54041e-20)
(-0.0594519 0.0662231 9.62656e-20)
(-0.0505786 0.0559542 -1.25261e-19)
(-0.0390478 0.0431694 -7.80569e-20)
(-0.0251598 0.0279133 8.04214e-20)
(-0.00918256 0.0103174 0)
(0.578086 0.012126 -9.27298e-20)
(0.449893 0.0214855 0)
(0.343427 0.0310688 0)
(0.251777 0.0393356 0)
(0.176431 0.0472818 0)
(0.114494 0.0544401 -8.02063e-20)
(0.0646247 0.0610209 0)
(0.0249424 0.0669692 0)
(-0.00605482 0.0722787 0)
(-0.0297319 0.076868 5.73648e-20)
(-0.0472261 0.0806116 -2.48259e-19)
(-0.0594806 0.0833343 1.33697e-19)
(-0.0672608 0.0848231 7.21636e-20)
(-0.071182 0.0848427 3.86961e-20)
(-0.0717368 0.0831524 -1.22839e-19)
(-0.0693226 0.0795263 4.36275e-20)
(-0.0642663 0.0737704 -9.12328e-20)
(-0.0568458 0.0657383 0)
(-0.0473071 0.0553423 1.00077e-19)
(-0.0358785 0.0425601 -7.76142e-20)
(-0.0227817 0.027438 -1.06466e-19)
(-0.0082191 0.0100888 8.94212e-20)
(0.364868 0.0171884 0)
(0.268142 0.0276179 0)
(0.190174 0.0367143 5.99764e-20)
(0.124653 0.0446522 4.63323e-22)
(0.072196 0.0518255 -7.33501e-20)
(0.030128 0.058177 0)
(-0.0027611 0.0638771 0)
(-0.0280353 0.068951 0)
(-0.0468935 0.0734157 0)
(-0.0604015 0.0772165 0)
(-0.0694334 0.0802452 0)
(-0.074708 0.0823415 0)
(-0.0768054 0.0833053 0)
(-0.0761911 0.082913 1.15772e-19)
(-0.0732377 0.080935 -1.2254e-19)
(-0.068246 0.0771545 4.34745e-20)
(-0.0614628 0.0713849 2.26487e-20)
(-0.0530967 0.0634833 0)
(-0.0433288 0.0533616 4.95416e-20)
(-0.0323215 0.0409932 -2.5771e-20)
(-0.0202355 0.0264093 0)
(-0.0072241 0.00968844 7.70644e-20)
(0.193 0.0229509 -4.7954e-20)
(0.124523 0.0327862 0)
(0.0707034 0.0407436 0)
(0.0267933 0.0476499 -6.7326e-20)
(-0.00722476 0.0536344 7.40767e-20)
(-0.0334715 0.0588601 0)
(-0.0529685 0.0634764 9e-20)
(-0.0669331 0.0675537 -9.81084e-20)
(-0.0762943 0.0711193 5.3371e-20)
(-0.0818644 0.0741333 1.16262e-19)
(-0.084307 0.0764984 -6.28086e-20)
(-0.0841657 0.0780654 0)
(-0.0818796 0.0786458 0)
(-0.0778016 0.0780271 0)
(-0.0722156 0.0759904 4.107e-20)
(-0.0653517 0.0723272 4.30077e-20)
(-0.057399 0.0668556 -2.27801e-20)
(-0.0485163 0.0594319 1.18308e-19)
(-0.0388383 0.0499612 -4.92182e-20)
(-0.0284794 0.0384042 -1.01625e-19)
(-0.0175584 0.0247668 0)
(-0.00619946 0.00908434 1.08991e-20)
(0.0589498 0.0272996 -1.53154e-22)
(0.0139414 0.0354623 0)
(-0.0202464 0.0419335 0)
(-0.0468631 0.0474868 6.78288e-20)
(-0.066299 0.0521643 -7.46117e-20)
(-0.0801175 0.0561971 4.10844e-20)
(-0.0891546 0.0597224 0)
(-0.0943243 0.0628284 -9.89402e-20)
(-0.0963316 0.0655468 1.07141e-19)
(-0.0957837 0.0678465 0)
(-0.0931765 0.0696402 -6.31458e-20)
(-0.0889156 0.0707907 6.77149e-20)
(-0.0833299 0.0711233 -1.08465e-19)
(-0.0766862 0.0704401 0)
(-0.069201 0.0685359 4.07306e-20)
(-0.0610524 0.0652137 4.29211e-20)
(-0.0523882 0.060298 -6.78503e-20)
(-0.0433336 0.0536459 -2.36706e-20)
(-0.0339927 0.0451552 -7.31749e-20)
(-0.0244486 0.0347722 1.00861e-19)
(-0.0147978 0.0224745 -1.03285e-19)
(-0.00515572 0.00825288 7.48799e-20)
(-0.041826 0.0290605 2.47679e-22)
(-0.068078 0.035159 -3.7807e-22)
(-0.0866896 0.0400175 6.10323e-20)
(-0.0997813 0.0441461 0)
(-0.107895 0.047559 -7.53458e-20)
(-0.112142 0.0504684 8.27636e-20)
(-0.113186 0.0529966 -1.8161e-19)
(-0.111693 0.0552309 9.90761e-20)
(-0.108183 0.0572028 -1.08171e-19)
(-0.103095 0.058888 5.8439e-20)
(-0.0967896 0.0602096 0)
(-0.0895602 0.0610454 0)
(-0.0816474 0.0612385 -3.61619e-20)
(-0.0732492 0.0606103 7.70955e-20)
(-0.0645301 0.0589747 -4.09584e-20)
(-0.055629 0.0561512 -2.14418e-20)
(-0.0466647 0.051977 -2.26031e-20)
(-0.0377408 0.0463151 0)
(-0.028944 0.0390622 0)
(-0.0203413 0.0301544 -1.24768e-20)
(-0.0120235 0.0195459 1.15189e-19)
(-0.00411575 0.00718903 -1.6878e-19)
(-0.112693 0.0278498 4.9417e-20)
(-0.124392 0.0319758 -1.1074e-19)
(-0.131002 0.0352996 9.19043e-20)
(-0.133866 0.0380998 -6.84427e-20)
(-0.133516 0.0403841 -3.79549e-22)
(-0.130721 0.0423133 1.24554e-19)
(-0.125976 0.0439886 0)
(-0.119749 0.0454849 -2.50023e-20)
(-0.112402 0.0468304 5.40805e-20)
(-0.104236 0.048006 0)
(-0.0954984 0.048947 0)
(-0.0863905 0.0495491 0)
(-0.0770807 0.0496773 -1.81096e-20)
(-0.0677115 0.0491773 0)
(-0.0584063 0.0478873 2.03673e-20)
(-0.0492737 0.0456497 2.15272e-20)
(-0.0404118 0.0423215 8.98441e-20)
(-0.0319106 0.0377803 -9.35777e-20)
(-0.0238487 0.0319312 -1.20752e-20)
(-0.016288 0.0247109 1.24909e-20)
(-0.00932666 0.0160622 -1.27773e-20)
(-0.00311352 0.00591327 -7.30517e-20)
(-0.155368 0.0239585 0)
(-0.156352 0.0264489 -2.759e-20)
(-0.154264 0.0284697 3.09701e-20)
(-0.149931 0.0301499 -6.82123e-20)
(-0.143778 0.0315009 3.77744e-20)
(-0.136309 0.0326322 4.17627e-20)
(-0.127863 0.0336206 -4.56188e-20)
(-0.118742 0.0345241 -7.50127e-20)
(-0.109175 0.0353655 -2.72607e-20)
(-0.0993505 0.0361305 -1.18583e-22)
(-0.0894194 0.0367678 3.16791e-20)
(-0.0795088 0.0371939 0)
(-0.0697286 0.0372993 -5.44914e-20)
(-0.0601769 0.0369576 9.64871e-20)
(-0.0509442 0.0360359 -4.0835e-20)
(-0.0421157 0.0344045 -8.58185e-20)
(-0.0337734 0.0319459 6.89067e-23)
(-0.0259978 0.0285611 9.34042e-20)
(-0.018863 0.0241747 1.20921e-20)
(-0.0124314 0.0187375 -1.23921e-20)
(-0.00681464 0.0121983 0)
(-0.00219186 0.0044836 5.17568e-21)
(-0.170289 0.0180687 2.45331e-20)
(-0.164292 0.0193468 -2.26345e-22)
(-0.156752 0.0203817 6.15386e-20)
(-0.148168 0.021217 0)
(-0.138811 0.021871 -1.90548e-20)
(-0.128984 0.0224119 0)
(-0.118887 0.0228933 0)
(-0.108684 0.0233556 -7.51971e-20)
(-0.0984977 0.0238155 8.16623e-20)
(-0.0884226 0.0242635 0)
(-0.0785353 0.0246633 1.5926e-20)
(-0.0689032 0.0249539 6.82471e-20)
(-0.0595904 0.0250541 5.60981e-23)
(-0.0506606 0.0248686 -7.73451e-20)
(-0.0421795 0.0242955 3.06697e-20)
(-0.0342142 0.0232355 1.07394e-20)
(-0.0268339 0.0215996 -8.97404e-20)
(-0.0201096 0.0193161 1.86619e-19)
(-0.0141101 0.0163371 -1.56732e-19)
(-0.00889621 0.0126405 1.86952e-20)
(-0.00458853 0.00820313 5.69742e-20)
(-0.00139247 0.00298199 -5.16438e-21)
(-0.157345 0.0113411 2.48682e-20)
(-0.148153 0.0118384 -1.39433e-20)
(-0.138464 0.0122309 -1.54805e-20)
(-0.128577 0.0125199 0)
(-0.118617 0.012727 3.81608e-20)
(-0.108735 0.012891 -4.18295e-20)
(-0.0990181 0.0130447 -1.15027e-20)
(-0.0895312 0.0132129 -2.52116e-20)
(-0.0803129 0.0134069 1.09341e-19)
(-0.0713898 0.0136222 1.4945e-20)
(-0.0627831 0.0138378 -4.77904e-20)
(-0.0545163 0.0140168 8.55879e-21)
(-0.0466193 0.0141078 9.13567e-21)
(-0.0391308 0.0140481 -9.69704e-20)
(-0.0320981 0.0137686 7.16922e-20)
(-0.0255753 0.0132 -1.07597e-20)
(-0.0196213 0.0122798 4.49496e-20)
(-0.0142979 0.010961 -5.60935e-23)
(-0.00966421 0.00922054 -3.62339e-20)
(-0.00577229 0.00706585 4.33215e-20)
(-0.00273384 0.00451415 -1.01193e-19)
(-0.000755746 0.00158126 4.38593e-20)
(-0.116387 0.00487 2.9035e-22)
(-0.107884 0.00496056 -4.16302e-20)
(-0.099416 0.00501116 3.89654e-20)
(-0.0911898 0.00501888 -7.76457e-20)
(-0.0832186 0.00500248 1.89573e-20)
(-0.0755579 0.00498036 0)
(-0.0682203 0.00496715 1.73199e-20)
(-0.0612078 0.00497375 -4.4215e-20)
(-0.0545104 0.00500559 1.02841e-19)
(-0.0481146 0.00506205 -1.4694e-20)
(-0.042009 0.00513575 -6.39505e-20)
(-0.0361894 0.00521212 3.00751e-20)
(-0.0306625 0.0052693 -4.57738e-20)
(-0.0254481 0.00527849 4.37792e-20)
(-0.0205782 0.00520506 -4.10771e-20)
(-0.0160959 0.00501102 0)
(-0.0120513 0.00465918 -4.50507e-20)
(-0.00849816 0.00411985 4.68383e-20)
(-0.00548589 0.00338194 -3.02956e-21)
(-0.00305129 0.00246595 0)
(-0.00126831 0.00142512 -6.33205e-21)
(-0.000294701 0.000368015 -2.57587e-21)
(-0.0479204 0.00066717 -2.44775e-20)
(-0.0439402 0.000664464 5.43534e-20)
(-0.0400377 0.000653572 -2.25622e-20)
(-0.0363644 0.00063341 8.38357e-21)
(-0.0328939 0.0006114 1.85901e-20)
(-0.0296383 0.000591679 -2.03148e-20)
(-0.0265852 0.000576996 -2.78497e-20)
(-0.0237196 0.000569447 1.82978e-20)
(-0.0210221 0.000570497 6.5933e-21)
(-0.0184731 0.000580987 2.85916e-20)
(-0.016055 0.000600924 -3.0625e-20)
(-0.0137545 0.000629145 -4.1047e-21)
(-0.0115653 0.000662849 -3.5092e-20)
(-0.00948898 0.000697025 6.97527e-20)
(-0.00753681 0.000723867 -3.92271e-20)
(-0.00573003 0.000732386 0)
(-0.00409949 0.000708634 0)
(-0.0026843 0.000637371 -4.46518e-20)
(-0.00152685 0.000506983 2.95435e-21)
(-0.000663288 0.000318419 4.74757e-20)
(-0.000131448 9.68769e-05 -4.84402e-20)
(1.7089e-05 -7.27653e-05 3.99354e-20)
(1.13634 0.0257309 2.04118e-24)
(1.09028 0.0274563 0)
(1.04218 0.0292268 2.21594e-20)
(0.99194 0.031044 2.53133e-20)
(0.939657 0.0329136 0)
(0.885421 0.0348423 3.25499e-20)
(0.829324 0.0368331 -3.73417e-20)
(0.771474 0.0388871 -1.15858e-21)
(0.711988 0.0410038 9.1208e-20)
(0.650995 0.0431805 -2.5021e-20)
(0.588641 0.0454095 3.39453e-24)
(0.525092 0.0476666 0)
(0.460565 0.0498883 -4.95612e-20)
(0.395392 0.0519321 5.27949e-20)
(0.330124 0.0535345 0)
(0.265664 0.0542832 4.03649e-20)
(0.203375 0.0536289 -4.21553e-20)
(0.145141 0.0509407 0)
(0.0932236 0.0456014 1.14527e-20)
(0.0500233 0.0371122 0)
(0.01878 0.0251556 -2.99424e-24)
(0.00353321 0.00964583 0)
(1.14082 0.0817033 6.51913e-20)
(1.09522 0.0875458 -7.74642e-20)
(1.04773 0.0936605 2.12076e-20)
(0.998079 0.100018 2.60588e-20)
(0.946384 0.10661 -5.63822e-20)
(0.892739 0.113442 -3.25455e-20)
(0.837232 0.12051 3.61447e-20)
(0.779974 0.127809 4.04318e-20)
(0.721081 0.135329 -2.27938e-20)
(0.660684 0.143057 1.00462e-19)
(0.598925 0.15096 -5.45384e-20)
(0.535965 0.158949 0)
(0.472008 0.166796 4.86212e-20)
(0.407354 0.174004 -5.23123e-20)
(0.342496 0.179665 3.70487e-20)
(0.278243 0.182378 0)
(0.215838 0.18029 0)
(0.157018 0.171295 -2.16346e-20)
(0.103899 0.153344 7.99031e-20)
(0.0587558 0.124787 -9.39318e-20)
(0.0247393 0.0845869 7.35308e-20)
(0.00584727 0.0324692 -1.68835e-19)
(1.14958 0.137674 6.65943e-20)
(1.10493 0.147649 -1.87805e-19)
(1.05869 0.158031 8.51073e-20)
(1.01022 0.168809 0)
(0.959707 0.179975 -5.54921e-20)
(0.907253 0.191537 0)
(0.852946 0.203496 -3.40324e-20)
(0.796898 0.215844 -1.98085e-19)
(0.739225 0.228568 9.0032e-20)
(0.680057 0.241646 -4.73631e-20)
(0.619533 0.255025 -2.15721e-19)
(0.557802 0.268555 1.1657e-19)
(0.495036 0.281848 -3.22027e-20)
(0.431471 0.294062 -3.27597e-20)
(0.367477 0.303656 1.10107e-19)
(0.303675 0.308252 -1.54448e-19)
(0.241052 0.304718 0)
(0.181053 0.289494 -1.07812e-19)
(0.125502 0.259124 1.77154e-19)
(0.0764215 0.210836 0)
(0.0367894 0.142893 -7.11236e-20)
(0.0105249 0.0548476 1.45958e-19)
(1.16167 0.1909 -1.29519e-19)
(1.11857 0.204889 2.15983e-19)
(1.07429 0.219397 8.27528e-20)
(1.02768 0.234478 0)
(0.979017 0.250107 -5.57191e-20)
(0.928412 0.266297 -3.8255e-21)
(0.875955 0.283046 2.07017e-19)
(0.821761 0.300344 7.86115e-20)
(0.76595 0.318173 -2.58824e-19)
(0.708652 0.336501 -4.18835e-21)
(0.650001 0.355255 2.06635e-19)
(0.590132 0.374224 -1.73687e-19)
(0.529172 0.392867 1.84108e-19)
(0.467258 0.409999 6.72716e-20)
(0.404579 0.423462 1.41787e-19)
(0.341473 0.429927 1.15666e-21)
(0.278549 0.425014 -1.95133e-19)
(0.216815 0.403753 -4.18883e-20)
(0.157654 0.361339 0)
(0.10272 0.293933 4.30179e-20)
(0.0547305 0.199154 4.43248e-20)
(0.0174871 0.0764159 -1.30725e-19)
(1.17707 0.241518 2.44836e-19)
(1.13604 0.25939 -3.55214e-19)
(1.09437 0.277824 5.77157e-22)
(1.05021 0.297003 1.88134e-19)
(1.004 0.316879 -2.02539e-19)
(0.955846 0.337471 3.56701e-21)
(0.905839 0.358778 -1.31235e-19)
(0.854103 0.380789 1.50531e-19)
(0.800762 0.403484 -7.89163e-20)
(0.745945 0.426824 8.87424e-20)
(0.689782 0.450716 9.71937e-20)
(0.632386 0.474894 -5.54954e-20)
(0.573827 0.498668 6.00401e-20)
(0.514113 0.520528 2.5332e-19)
(0.453192 0.537717 -3.32591e-19)
(0.391027 0.545988 6.88938e-20)
(0.327728 0.539758 -3.40247e-20)
(0.263727 0.512709 0)
(0.199833 0.458755 -3.91503e-20)
(0.137217 0.373064 1.65448e-19)
(0.0782604 0.252676 -4.28662e-20)
(0.0266124 0.0969076 -1.41618e-19)
(1.19536 0.288238 -1.06859e-21)
(1.15693 0.30982 0)
(1.11847 0.331944 1.57833e-19)
(1.07736 0.354987 0)
(1.03418 0.378871 1.02053e-19)
(0.989056 0.403617 0)
(0.942078 0.429228 -3.7875e-19)
(0.893378 0.455693 4.15181e-19)
(0.843083 0.482989 -1.57879e-19)
(0.791325 0.511075 3.39265e-19)
(0.738228 0.539841 -3.74752e-19)
(0.683881 0.568971 0)
(0.628285 0.597636 0)
(0.571289 0.624019 -2.378e-19)
(0.512548 0.644794 3.16102e-19)
(0.451561 0.654839 -6.87039e-20)
(0.387825 0.647421 3.51728e-19)
(0.321062 0.614947 -5.82411e-19)
(0.251382 0.550127 3.40862e-19)
(0.17937 0.447224 -4.04239e-20)
(0.107002 0.302777 -3.85674e-20)
(0.0377484 0.116058 1.33079e-19)
(1.21608 0.330483 -4.22904e-22)
(1.18075 0.355545 -1.25171e-19)
(1.14607 0.381061 0)
(1.10853 0.407675 0)
(1.0689 0.435267 0)
(1.02733 0.463863 1.02471e-19)
(0.983904 0.493471 2.36635e-19)
(0.938769 0.524079 -1.35954e-19)
(0.892057 0.555665 -4.36113e-19)
(0.8439 0.588183 7.3573e-20)
(0.794418 0.621509 2.64959e-19)
(0.743672 0.655284 0)
(0.691583 0.688556 0)
(0.637815 0.719224 0)
(0.581675 0.743432 1.11401e-19)
(0.522121 0.75523 0)
(0.457922 0.746805 -6.11977e-20)
(0.387966 0.709357 -6.35817e-20)
(0.311545 0.634485 0)
(0.228563 0.515638 0)
(0.140538 0.34894 -2.58084e-19)
(0.0507305 0.133673 2.14393e-19)
(1.23856 0.367556 0)
(1.20684 0.395853 0)
(1.17644 0.424446 -1.31758e-19)
(1.14297 0.454308 -1.57052e-19)
(1.10739 0.485264 1.80922e-19)
(1.06986 0.517346 -1.06086e-19)
(1.03047 0.550573 -1.1372e-19)
(0.989381 0.584937 -2.46785e-19)
(0.946728 0.620421 4.07488e-19)
(0.902652 0.656977 -2.98251e-19)
(0.857266 0.694478 3.20861e-19)
(0.810608 0.732531 0)
(0.762511 0.770078 8.94685e-20)
(0.712436 0.804767 0)
(0.659302 0.832256 -2.11249e-19)
(0.601446 0.845827 0)
(0.536807 0.836646 6.24468e-21)
(0.46332 0.794795 -1.76882e-19)
(0.379341 0.710844 2.49039e-19)
(0.284013 0.577524 1.97153e-19)
(0.17834 0.390639 -5.30367e-19)
(0.0653508 0.149553 4.68928e-19)
(1.26206 0.39889 5.7709e-21)
(1.2344 0.430092 -3.29911e-19)
(1.20871 0.461392 3.76166e-19)
(1.17968 0.494148 0)
(1.14856 0.528115 3.30345e-19)
(1.11547 0.563336 -3.66462e-19)
(1.08054 0.599834 1.93392e-19)
(1.04394 0.6376 0)
(1.0058 0.676618 1.1766e-19)
(0.966275 0.716842 0)
(0.925471 0.758139 -4.32897e-19)
(0.883395 0.800093 -1.5107e-19)
(0.839793 0.841563 4.97295e-19)
(0.793902 0.879983 -1.79383e-19)
(0.744211 0.910579 1.10256e-20)
(0.688369 0.92593 1.96414e-19)
(0.623385 0.916263 5.26203e-20)
(0.546124 0.870616 -2.12673e-19)
(0.453903 0.778631 0)
(0.345029 0.632416 6.01252e-20)
(0.219946 0.427559 5.36412e-20)
(0.0814307 0.163583 4.48912e-20)
(1.28566 0.42433 0)
(1.26256 0.458153 -1.04252e-20)
(1.24199 0.491809 1.08239e-19)
(1.21784 0.527059 1.25525e-19)
(1.19156 0.563585 0)
(1.16329 0.601456 1.574e-19)
(1.13316 0.640712 -1.91161e-19)
(1.10136 0.681358 1.07063e-19)
(1.06806 0.723387 -3.36948e-19)
(1.0334 0.766762 0)
(0.997506 0.811354 -1.24283e-22)
(0.96036 0.85674 2.9668e-19)
(0.921622 0.901724 -9.09562e-21)
(0.880309 0.943567 0)
(0.834457 0.977121 1.13545e-20)
(0.780971 0.994328 1.69743e-19)
(0.715833 0.984541 -1.78034e-19)
(0.634726 0.935832 0)
(0.533816 0.836997 0)
(0.410499 0.679631 -4.34293e-20)
(0.264622 0.459223 -8.84156e-21)
(0.0986836 0.175572 -7.42044e-21)
(1.30849 0.443392 0)
(1.2903 0.479386 -1.93728e-19)
(1.27503 0.515014 0)
(1.25597 0.552431 -1.23843e-19)
(1.23482 0.591222 0)
(1.21169 0.631458 -1.55314e-19)
(1.18672 0.673178 8.96777e-21)
(1.16012 0.716386 -8.46653e-20)
(1.13206 0.761081 0)
(1.10271 0.807231 0)
(1.07217 0.854714 -1.42005e-20)
(1.04042 0.903106 1.61316e-20)
(1.00703 0.95118 5.11471e-20)
(0.97078 0.996069 0)
(0.929234 1.03231 1.4072e-19)
(0.878489 1.0513 1.42572e-19)
(0.813417 1.04161 -1.49691e-19)
(0.728413 0.990436 6.74003e-20)
(0.618414 0.885847 -1.17582e-19)
(0.47985 0.719031 7.88459e-20)
(0.311961 0.485507 1.15825e-19)
(0.116947 0.185474 -7.69524e-21)
(1.32962 0.45682 -1.49158e-19)
(1.31693 0.494759 3.96954e-21)
(1.30735 0.531933 1.92249e-19)
(1.29371 0.570954 -3.19479e-19)
(1.27789 0.611366 2.32023e-19)
(1.26 0.653286 0)
(1.24027 0.696776 1.5632e-20)
(1.21893 0.741859 0)
(1.19617 0.788543 -1.72723e-19)
(1.17218 0.83681 8.87367e-20)
(1.14708 0.886556 9.33863e-20)
(1.12084 0.93738 -9.47207e-20)
(1.09297 0.988061 3.20016e-19)
(1.06206 1.03566 -2.30879e-19)
(1.02519 1.07448 -6.39758e-20)
(0.977637 1.09542 0)
(0.913078 1.08631 0)
(0.824501 1.03353 -1.83201e-19)
(0.705475 0.924459 3.58912e-20)
(0.551393 0.750022 8.54386e-20)
(0.360867 0.505958 -1.49823e-19)
(0.135798 0.193085 -1.3514e-19)
(1.34807 0.463466 -2.60138e-19)
(1.34098 0.502888 3.13428e-19)
(1.337 0.541497 -3.33453e-19)
(1.32898 0.582091 0)
(1.3188 0.624107 -2.18408e-19)
(1.30657 0.667659 5.74269e-21)
(1.29252 0.712819 2.64111e-19)