/*--------------------------------*- C++ -*----------------------------------*\
| =========                 |                                                 |
| \\      /  F ield         | OpenFOAM Extend Project: Open source CFD        |
|  \\    /   O peration     | Version:  1.6-ext                               |
|   \\  /    A nd           | Web:      www.extend-project.de                 |
|    \\/     M anipulation  |                                                 |
\*---------------------------------------------------------------------------*/
FoamFile
{
    version     2.0;
    format      ascii;
    class       volScalarField::DimensionedInternalField;
    location    "0.65";
    object      V0;
}
// * * * * * * * * * * * * * * * * * * * * * * * * * * * * * * * * * * * * * //

dimensions      [0 3 0 0 0 0 0];

value           nonuniform List<scalar> 
20940
(
1.17114e-06
1.03811e-06
9.21065e-07
8.18025e-07
7.27247e-07
6.47216e-07
5.76605e-07
5.14258e-07
4.59163e-07
4.10435e-07
3.67301e-07
3.29085e-07
2.95195e-07
2.65113e-07
2.38383e-07
2.14608e-07
1.93438e-07
1.74567e-07
1.57727e-07
1.42682e-07
1.29225e-07
1.17175e-07
1.1713e-06
1.03825e-06
9.2119e-07
8.18135e-07
7.27347e-07
6.47307e-07
5.76691e-07
5.14339e-07
4.5924e-07
4.10509e-07
3.67371e-07
3.29151e-07
2.95255e-07
2.65167e-07
2.38432e-07
2.14652e-07
1.93479e-07
1.74607e-07
1.57765e-07
1.42719e-07
1.29261e-07
1.1721e-07
1.17387e-06
1.04053e-06
9.23213e-07
8.19934e-07
7.28948e-07
6.48734e-07
5.77965e-07
5.1548e-07
4.60263e-07
4.11429e-07
3.682e-07
3.29898e-07
2.9593e-07
2.65776e-07
2.38981e-07
2.15147e-07
1.93926e-07
1.7501e-07
1.58132e-07
1.43053e-07
1.29567e-07
1.17491e-07
1.17814e-06
1.04431e-06
9.26566e-07
8.22914e-07
7.316e-07
6.51098e-07
5.80074e-07
5.17364e-07
4.61948e-07
4.12938e-07
3.69554e-07
3.31116e-07
2.97028e-07
2.66766e-07
2.39876e-07
2.15955e-07
1.94656e-07
1.7567e-07
1.58728e-07
1.43594e-07
1.30059e-07
1.1794e-07
1.18338e-06
1.04899e-06
9.30754e-07
8.26666e-07
7.34967e-07
6.54125e-07
5.82799e-07
5.1982e-07
4.64165e-07
4.1494e-07
3.71365e-07
3.32756e-07
2.98515e-07
2.68118e-07
2.41107e-07
2.17078e-07
1.95681e-07
1.76605e-07
1.59582e-07
1.44373e-07
1.30771e-07
1.18591e-07
1.1902e-06
1.0551e-06
9.36233e-07
8.31584e-07
7.3939e-07
6.58109e-07
5.86396e-07
5.23073e-07
4.67111e-07
4.17612e-07
3.73791e-07
3.34961e-07
3.00521e-07
2.69945e-07
2.42773e-07
2.18601e-07
1.97073e-07
1.77881e-07
1.60751e-07
1.45444e-07
1.31751e-07
1.19488e-07
1.19857e-06
1.06263e-06
9.43017e-07
8.37698e-07
7.44903e-07
6.63088e-07
5.90899e-07
5.27154e-07
4.70819e-07
4.20987e-07
3.76868e-07
3.37769e-07
3.03087e-07
2.72292e-07
2.4492e-07
2.20567e-07
1.98876e-07
1.79535e-07
1.6227e-07
1.46841e-07
1.33035e-07
1.20668e-07
1.20848e-06
1.0716e-06
9.51148e-07
8.45072e-07
7.51593e-07
6.69157e-07
5.96407e-07
5.32156e-07
4.75368e-07
4.25132e-07
3.80653e-07
3.41233e-07
3.06261e-07
2.75203e-07
2.47593e-07
2.23023e-07
2.01133e-07
1.81611e-07
1.64182e-07
1.48603e-07
1.34661e-07
1.2217e-07
1.21984e-06
1.08194e-06
9.60563e-07
8.53663e-07
7.59441e-07
6.76331e-07
6.02965e-07
5.3815e-07
4.80843e-07
4.30134e-07
3.85226e-07
3.4542e-07
3.10102e-07
2.78734e-07
2.50844e-07
2.26018e-07
2.03896e-07
1.84161e-07
1.66536e-07
1.50777e-07
1.36672e-07
1.24032e-07
1.23259e-06
1.09358e-06
9.71214e-07
8.63418e-07
7.68392e-07
6.84556e-07
6.10533e-07
5.45118e-07
4.8726e-07
4.36039e-07
3.90656e-07
3.50411e-07
3.1469e-07
2.82956e-07
2.54734e-07
2.2961e-07
2.07216e-07
1.87233e-07
1.6938e-07
1.53412e-07
1.39112e-07
1.26293e-07
1.24654e-06
1.1064e-06
9.83004e-07
8.74267e-07
7.78383e-07
6.93768e-07
6.19038e-07
5.52982e-07
4.94541e-07
4.42787e-07
3.96911e-07
3.56205e-07
3.20052e-07
2.87912e-07
2.59315e-07
2.33845e-07
2.11136e-07
1.90865e-07
1.72749e-07
1.56539e-07
1.42015e-07
1.28988e-07
1.26214e-06
1.1208e-06
9.96299e-07
8.86545e-07
7.89725e-07
7.04248e-07
6.28726e-07
5.61945e-07
5.02841e-07
4.50484e-07
4.04058e-07
3.6285e-07
3.26231e-07
2.93656e-07
2.64648e-07
2.38791e-07
2.1572e-07
1.95114e-07
1.7669e-07
1.60197e-07
1.45414e-07
1.32148e-07
1.27857e-06
1.13609e-06
1.01052e-06
8.99782e-07
8.02042e-07
7.15707e-07
6.39383e-07
5.71853e-07
5.12051e-07
4.59047e-07
4.12024e-07
3.70266e-07
3.33145e-07
3.00107e-07
2.7067e-07
2.44408e-07
2.20955e-07
1.99987e-07
1.81222e-07
1.64412e-07
1.49336e-07
1.35799e-07
1.29588e-06
1.15229e-06
1.02569e-06
9.13984e-07
8.15338e-07
7.28153e-07
6.5103e-07
5.82745e-07
5.22231e-07
4.68553e-07
4.20895e-07
3.78542e-07
3.40866e-07
3.07315e-07
2.77404e-07
2.50707e-07
2.26847e-07
2.05496e-07
1.86369e-07
1.69214e-07
1.53813e-07
1.39971e-07
1.31383e-06
1.16923e-06
1.04166e-06
9.29023e-07
8.29493e-07
7.41471e-07
6.63556e-07
5.94523e-07
5.33301e-07
4.78949e-07
4.3065e-07
3.87684e-07
3.49425e-07
3.15322e-07
2.84893e-07
2.57712e-07
2.33405e-07
2.1164e-07
1.92125e-07
1.74604e-07
1.58854e-07
1.44681e-07
1.24219e-06
1.1081e-06
9.89621e-07
8.84831e-07
7.92068e-07
7.09875e-07
6.3698e-07
5.72268e-07
5.14761e-07
4.63601e-07
4.18036e-07
3.77406e-07
3.41137e-07
3.08723e-07
2.79721e-07
2.53745e-07
2.30452e-07
2.09542e-07
1.90746e-07
1.73829e-07
1.5858e-07
1.44818e-07
1.21909e-06
1.08699e-06
9.70288e-07
8.67112e-07
7.75811e-07
6.94943e-07
6.2325e-07
5.5963e-07
5.03118e-07
4.52868e-07
4.08139e-07
3.68278e-07
3.32713e-07
3.00944e-07
2.72532e-07
2.47093e-07
2.24289e-07
2.03826e-07
1.85442e-07
1.68907e-07
1.54016e-07
1.40587e-07
1.19713e-06
1.06695e-06
9.51988e-07
8.50381e-07
7.605e-07
6.80919e-07
6.1039e-07
5.47823e-07
4.92264e-07
4.42879e-07
3.98938e-07
3.59797e-07
3.24894e-07
2.93733e-07
2.65879e-07
2.4095e-07
2.18613e-07
1.98575e-07
1.80579e-07
1.64398e-07
1.49834e-07
1.3671e-07
1.17643e-06
1.04811e-06
9.34819e-07
8.34721e-07
7.46199e-07
6.67847e-07
5.98432e-07
5.36872e-07
4.82224e-07
4.33663e-07
3.90467e-07
3.52003e-07
3.17715e-07
2.87117e-07
2.59779e-07
2.35326e-07
2.13426e-07
1.93788e-07
1.76157e-07
1.60309e-07
1.46047e-07
1.33198e-07
1.15713e-06
1.03058e-06
9.18884e-07
8.20216e-07
7.32982e-07
6.55787e-07
5.87415e-07
5.268e-07
4.73009e-07
4.25224e-07
3.8273e-07
3.449e-07
3.11188e-07
2.81111e-07
2.54249e-07
2.30229e-07
2.08727e-07
1.89455e-07
1.7216e-07
1.5662e-07
1.42638e-07
1.30044e-07
1.13902e-06
1.01419e-06
9.04033e-07
8.06739e-07
7.20738e-07
6.4465e-07
5.77272e-07
5.17551e-07
4.64565e-07
4.17508e-07
3.75673e-07
3.38441e-07
3.05269e-07
2.75681e-07
2.49261e-07
2.25643e-07
2.04505e-07
1.85564e-07
1.68573e-07
1.53312e-07
1.39587e-07
1.27229e-07
1.12294e-06
9.99644e-07
8.90856e-07
7.9479e-07
7.09887e-07
6.34785e-07
5.68293e-07
5.09368e-07
4.57098e-07
4.10687e-07
3.69435e-07
3.32731e-07
3.00037e-07
2.70884e-07
2.44858e-07
2.21597e-07
2.00783e-07
1.82137e-07
1.65413e-07
1.50396e-07
1.36896e-07
1.24744e-07
1.10827e-06
9.86407e-07
8.78899e-07
7.83976e-07
7.00094e-07
6.25905e-07
5.6023e-07
5.02038e-07
4.50427e-07
4.04608e-07
3.63889e-07
3.27665e-07
2.95405e-07
2.66645e-07
2.40974e-07
2.18036e-07
1.97515e-07
1.79136e-07
1.62653e-07
1.47855e-07
1.34553e-07
1.22582e-07
1.09522e-06
9.7466e-07
8.68306e-07
7.74413e-07
6.9145e-07
6.18082e-07
5.53141e-07
4.95606e-07
4.44585e-07
3.99293e-07
3.59049e-07
3.23252e-07
2.91377e-07
2.62963e-07
2.37606e-07
2.14951e-07
1.94688e-07
1.76542e-07
1.60272e-07
1.45667e-07
1.3254e-07
1.20728e-07
1.0838e-06
9.64391e-07
8.59064e-07
7.66084e-07
6.83934e-07
6.11291e-07
5.46999e-07
4.90044e-07
4.3954e-07
3.94714e-07
3.54885e-07
3.19462e-07
2.87923e-07
2.59812e-07
2.34727e-07
2.12319e-07
1.92278e-07
1.74333e-07
1.58247e-07
1.43808e-07
1.30833e-07
1.19159e-07
1.07397e-06
9.5557e-07
8.5114e-07
7.58955e-07
6.77514e-07
6.05501e-07
5.4177e-07
4.85316e-07
4.35259e-07
3.90833e-07
3.51364e-07
3.16262e-07
2.85011e-07
2.57159e-07
2.32308e-07
2.10109e-07
1.90258e-07
1.72485e-07
1.56554e-07
1.42256e-07
1.29408e-07
1.1785e-07
1.06568e-06
9.48147e-07
8.44481e-07
7.52975e-07
6.72136e-07
6.0066e-07
5.37406e-07
4.81376e-07
4.31699e-07
3.87611e-07
3.48444e-07
3.13613e-07
2.82604e-07
2.54969e-07
2.30314e-07
2.08291e-07
1.88598e-07
1.70967e-07
1.55165e-07
1.40984e-07
1.28244e-07
1.16782e-07
1.05888e-06
9.42062e-07
8.39028e-07
7.48083e-07
6.67742e-07
5.96709e-07
5.33848e-07
4.7817e-07
4.28805e-07
3.84997e-07
3.46079e-07
3.1147e-07
2.8066e-07
2.53204e-07
2.28707e-07
2.06829e-07
1.87263e-07
1.6975e-07
1.54051e-07
1.39965e-07
1.2731e-07
1.15928e-07
1.05356e-06
9.37301e-07
8.34761e-07
7.44256e-07
6.64305e-07
5.93618e-07
5.31067e-07
4.75664e-07
4.26545e-07
3.82955e-07
3.44232e-07
3.09798e-07
2.79145e-07
2.51828e-07
2.27458e-07
2.05691e-07
1.86227e-07
1.68803e-07
1.53186e-07
1.39171e-07
1.26579e-07
1.15254e-07
1.04935e-06
9.33556e-07
8.31421e-07
7.41274e-07
6.6164e-07
5.91233e-07
5.28929e-07
4.73744e-07
4.24818e-07
3.814e-07
3.42829e-07
3.08531e-07
2.77999e-07
2.5079e-07
2.26515e-07
2.04835e-07
1.85449e-07
1.68095e-07
1.52541e-07
1.38583e-07
1.26042e-07
1.14719e-07
1.17426e-06
1.0468e-06
9.34192e-07
8.34618e-07
7.46497e-07
6.68445e-07
5.99248e-07
5.37844e-07
4.83304e-07
4.34811e-07
3.91651e-07
3.53198e-07
3.18901e-07
2.88278e-07
2.60904e-07
2.36408e-07
2.1446e-07
1.94774e-07
1.77095e-07
1.61199e-07
1.46892e-07
1.33996e-07
1.17456e-06
1.04708e-06
9.3445e-07
8.34859e-07
7.46723e-07
6.68657e-07
5.99446e-07
5.3803e-07
4.83477e-07
4.34973e-07
3.91803e-07
3.5334e-07
3.19034e-07
2.88401e-07
2.6102e-07
2.36515e-07
2.14561e-07
1.94868e-07
1.77183e-07
1.61282e-07
1.46968e-07
1.34068e-07
1.1773e-06
1.04955e-06
9.3668e-07
8.36872e-07
7.48543e-07
6.70303e-07
6.00938e-07
5.39383e-07
4.84706e-07
4.3609e-07
3.92819e-07
3.54266e-07
3.19878e-07
2.89173e-07
2.61724e-07
2.3716e-07
2.15151e-07
1.9541e-07
1.77679e-07
1.61738e-07
1.47387e-07
1.34453e-07
1.1819e-06
1.05368e-06
9.40389e-07
8.40211e-07
7.51551e-07
6.73016e-07
6.03388e-07
5.41599e-07
4.86712e-07
4.37908e-07
3.94469e-07
3.55765e-07
3.21241e-07
2.90414e-07
2.62855e-07
2.38192e-07
2.16094e-07
1.96271e-07
1.78469e-07
1.6246e-07
1.48051e-07
1.35061e-07
1.18774e-06
1.05896e-06
9.45162e-07
8.44532e-07
7.55469e-07
6.76572e-07
6.06619e-07
5.44538e-07
4.89389e-07
4.40348e-07
3.96696e-07
3.57799e-07
3.23102e-07
2.92117e-07
2.64417e-07
2.39623e-07
2.17408e-07
1.97478e-07
1.79578e-07
1.63482e-07
1.4899e-07
1.35928e-07
1.19548e-06
1.06596e-06
9.515e-07
8.50278e-07
7.60684e-07
6.81311e-07
6.1093e-07
5.48464e-07
4.92967e-07
4.43615e-07
3.9968e-07
3.60528e-07
3.256e-07
2.94406e-07
2.66515e-07
2.41551e-07
2.19177e-07
1.99106e-07
1.81075e-07
1.64861e-07
1.5026e-07
1.371e-07
1.20511e-06
1.07469e-06
9.5943e-07
8.57485e-07
7.67241e-07
6.87283e-07
6.16376e-07
5.53434e-07
4.97509e-07
4.47769e-07
4.03484e-07
3.64013e-07
3.28797e-07
2.9734e-07
2.69212e-07
2.4403e-07
2.2146e-07
2.01207e-07
1.83012e-07
1.66646e-07
1.51909e-07
1.38621e-07
1.21674e-06
1.08526e-06
9.69047e-07
8.66248e-07
7.75233e-07
6.94582e-07
6.23047e-07
5.59538e-07
5.03099e-07
4.52892e-07
4.08184e-07
3.6833e-07
3.32764e-07
3.00989e-07
2.7257e-07
2.47123e-07
2.24311e-07
2.03837e-07
1.8544e-07
1.68889e-07
1.53982e-07
1.40538e-07
1.2304e-06
1.09772e-06
9.8042e-07
8.76637e-07
7.84735e-07
7.03279e-07
6.31015e-07
5.66846e-07
5.09806e-07
4.59055e-07
4.1385e-07
3.73543e-07
3.37564e-07
3.05412e-07
2.76649e-07
2.50887e-07
2.27787e-07
2.07049e-07
1.88408e-07
1.71635e-07
1.56522e-07
1.42891e-07
1.24614e-06
1.11211e-06
9.93589e-07
8.88701e-07
7.95795e-07
7.13429e-07
6.40338e-07
5.75415e-07
5.1769e-07
4.66312e-07
4.20536e-07
3.79708e-07
3.43252e-07
3.10663e-07
2.815e-07
2.5537e-07
2.31933e-07
2.10885e-07
1.9196e-07
1.74924e-07
1.59571e-07
1.45716e-07
1.26379e-06
1.1283e-06
1.00845e-06
9.02363e-07
8.08361e-07
7.24995e-07
6.50992e-07
5.85236e-07
5.2675e-07
4.74675e-07
4.2826e-07
3.86846e-07
3.49852e-07
3.1677e-07
2.87152e-07
2.60606e-07
2.36783e-07
2.15381e-07
1.96129e-07
1.78791e-07
1.63159e-07
1.49047e-07
1.28381e-06
1.1467e-06
1.02538e-06
9.17938e-07
8.22707e-07
7.38219e-07
6.63189e-07
5.96494e-07
5.37146e-07
4.84283e-07
4.37144e-07
3.95065e-07
3.57459e-07
3.23815e-07
2.93679e-07
2.66655e-07
2.42392e-07
2.20583e-07
2.00957e-07
1.83273e-07
1.6732e-07
1.52912e-07
1.30547e-06
1.16668e-06
1.04383e-06
9.34988e-07
8.38469e-07
7.52797e-07
6.76681e-07
6.08985e-07
5.48718e-07
4.95006e-07
4.47086e-07
4.04286e-07
3.66015e-07
3.31755e-07
3.01051e-07
2.73502e-07
2.48753e-07
2.26495e-07
2.06451e-07
1.88382e-07
1.72071e-07
1.57332e-07
1.32888e-06
1.18836e-06
1.06391e-06
9.53595e-07
8.5572e-07
7.68798e-07
6.91527e-07
6.22766e-07
5.61513e-07
5.0689e-07
4.58127e-07
4.14545e-07
3.75552e-07
3.40622e-07
3.09297e-07
2.81172e-07
2.5589e-07
2.33136e-07
2.12632e-07
1.94136e-07
1.77429e-07
1.6232e-07
1.35384e-06
1.21155e-06
1.08547e-06
9.73642e-07
8.74365e-07
7.86142e-07
7.07664e-07
6.37783e-07
5.7549e-07
5.19901e-07
4.70241e-07
4.25826e-07
3.86057e-07
3.50407e-07
3.18412e-07
2.89664e-07
2.63802e-07
2.40509e-07
2.19504e-07
2.0054e-07
1.83398e-07
1.67885e-07
1.35384e-06
1.21155e-06
1.08547e-06
9.73643e-07
8.74366e-07
7.86144e-07
7.07666e-07
6.37784e-07
5.75491e-07
5.19902e-07
4.70241e-07
4.25826e-07
3.86057e-07
3.50408e-07
3.18413e-07
2.89665e-07
2.63803e-07
2.4051e-07
2.19505e-07
2.00541e-07
1.834e-07
1.67887e-07
1.32888e-06
1.18836e-06
1.06391e-06
9.53597e-07
8.55723e-07
7.68802e-07
6.91531e-07
6.22769e-07
5.61516e-07
5.06892e-07
4.58128e-07
4.14547e-07
3.75554e-07
3.40625e-07
3.093e-07
2.81176e-07
2.55893e-07
2.33139e-07
2.12636e-07
1.94139e-07
1.77432e-07
1.62324e-07
1.30547e-06
1.16669e-06
1.04383e-06
9.34992e-07
8.38473e-07
7.52802e-07
6.76686e-07
6.0899e-07
5.48722e-07
4.9501e-07
4.4709e-07
4.0429e-07
3.66019e-07
3.3176e-07
3.01057e-07
2.73507e-07
2.48759e-07
2.265e-07
2.06457e-07
1.88386e-07
1.72076e-07
1.57336e-07
1.28381e-06
1.1467e-06
1.02538e-06
9.17943e-07
8.22713e-07
7.38225e-07
6.63195e-07
5.965e-07
5.37153e-07
4.8429e-07
4.37151e-07
3.95072e-07
3.57466e-07
3.23822e-07
2.93685e-07
2.66661e-07
2.42398e-07
2.20589e-07
2.00962e-07
1.83278e-07
1.67325e-07
1.52916e-07
1.26379e-06
1.1283e-06
1.00846e-06
9.02369e-07
8.08368e-07
7.25003e-07
6.51001e-07
5.85245e-07
5.26759e-07
4.74684e-07
4.2827e-07
3.86855e-07
3.49861e-07
3.16778e-07
2.87161e-07
2.60613e-07
2.3679e-07
2.15386e-07
1.96134e-07
1.78796e-07
1.63164e-07
1.49052e-07
1.24615e-06
1.11212e-06
9.93598e-07
8.8871e-07
7.95806e-07
7.1344e-07
6.40349e-07
5.75426e-07
5.17701e-07
4.66323e-07
4.20547e-07
3.79718e-07
3.43262e-07
3.10674e-07
2.81509e-07
2.5538e-07
2.31941e-07
2.10893e-07
1.91967e-07
1.74931e-07
1.59577e-07
1.45722e-07
1.23041e-06
1.09773e-06
9.80433e-07
8.76652e-07
7.8475e-07
7.03294e-07
6.3103e-07
5.66859e-07
5.0982e-07
4.59067e-07
4.13862e-07
3.73555e-07
3.37576e-07
3.05424e-07
2.76661e-07
2.50898e-07
2.27798e-07
2.07058e-07
1.88418e-07
1.71644e-07
1.5653e-07
1.42898e-07
1.21675e-06
1.08527e-06
9.69067e-07
8.66268e-07
7.75254e-07
6.94601e-07
6.23065e-07
5.59555e-07
5.03115e-07
4.52908e-07
4.08199e-07
3.68344e-07
3.32777e-07
3.01002e-07
2.72583e-07
2.47135e-07
2.24323e-07
2.03848e-07
1.8545e-07
1.68898e-07
1.5399e-07
1.40546e-07
1.20514e-06
1.07472e-06
9.59457e-07
8.57512e-07
7.67267e-07
6.87309e-07
6.164e-07
5.53457e-07
4.9753e-07
4.47788e-07
4.03501e-07
3.64029e-07
3.28811e-07
2.97354e-07
2.69224e-07
2.44042e-07
2.21471e-07
2.01217e-07
1.83022e-07
1.66656e-07
1.51918e-07
1.3863e-07
1.19551e-06
1.06599e-06
9.51535e-07
8.50313e-07
7.60717e-07
6.81343e-07
6.1096e-07
5.48491e-07
4.92992e-07
4.43637e-07
3.997e-07
3.60546e-07
3.25616e-07
2.9442e-07
2.66529e-07
2.41563e-07
2.1919e-07
1.99117e-07
1.81086e-07
1.64871e-07
1.50271e-07
1.3711e-07
1.18778e-06
1.059e-06
9.45203e-07
8.44573e-07
7.55508e-07
6.7661e-07
6.06655e-07
5.44571e-07
4.89419e-07
4.40376e-07
3.96721e-07
3.57821e-07
3.23121e-07
2.92134e-07
2.64432e-07
2.39638e-07
2.17421e-07
1.97491e-07
1.79591e-07
1.63493e-07
1.49003e-07
1.3594e-07
1.18195e-06
1.05373e-06
9.40436e-07
8.40256e-07
7.51594e-07
6.73058e-07
6.03427e-07
5.41635e-07
4.86746e-07
4.3794e-07
3.94499e-07
3.55791e-07
3.21265e-07
2.90435e-07
2.62874e-07
2.3821e-07
2.16109e-07
1.96286e-07
1.78482e-07
1.62474e-07
1.48063e-07
1.35074e-07
1.17736e-06
1.04961e-06
9.36738e-07
8.36927e-07
7.48594e-07
6.7035e-07
6.00981e-07
5.39423e-07
4.84743e-07
4.36125e-07
3.92852e-07
3.54296e-07
3.19907e-07
2.89199e-07
2.61748e-07
2.37181e-07
2.15171e-07
1.95427e-07
1.77696e-07
1.61754e-07
1.47402e-07
1.34468e-07
1.17464e-06
1.04716e-06
9.34529e-07
8.34933e-07
7.46791e-07
6.68718e-07
5.99501e-07
5.38079e-07
4.83521e-07
4.35014e-07
3.9184e-07
3.53375e-07
3.19067e-07
2.88434e-07
2.6105e-07
2.36543e-07
2.14587e-07
1.94891e-07
1.77205e-07
1.61301e-07
1.46986e-07
1.34084e-07
1.17437e-06
1.04691e-06
9.34295e-07
8.34715e-07
7.46587e-07
6.68526e-07
5.99321e-07
5.37909e-07
4.83361e-07
4.34862e-07
3.91697e-07
3.53239e-07
3.1894e-07
2.88315e-07
2.60939e-07
2.36441e-07
2.14491e-07
1.94803e-07
1.77121e-07
1.61223e-07
1.46911e-07
1.34012e-07
1.17421e-06
1.04675e-06
9.34137e-07
8.34562e-07
7.46442e-07
6.6839e-07
5.99194e-07
5.37792e-07
4.83253e-07
4.34762e-07
3.91606e-07
3.53156e-07
3.18863e-07
2.88244e-07
2.60874e-07
2.3638e-07
2.14435e-07
1.9475e-07
1.77072e-07
1.61178e-07
1.4687e-07
1.33974e-07
1.1745e-06
1.04702e-06
9.34388e-07
8.34797e-07
7.46662e-07
6.68596e-07
5.99387e-07
5.37974e-07
4.83424e-07
4.34924e-07
3.91758e-07
3.53299e-07
3.18997e-07
2.88368e-07
2.6099e-07
2.36488e-07
2.14535e-07
1.94844e-07
1.7716e-07
1.6126e-07
1.46947e-07
1.34048e-07
1.17724e-06
1.04948e-06
9.36612e-07
8.36806e-07
7.48478e-07
6.70241e-07
6.00879e-07
5.39327e-07
4.84654e-07
4.36042e-07
3.92775e-07
3.54225e-07
3.19841e-07
2.89138e-07
2.61692e-07
2.37129e-07
2.15123e-07
1.95382e-07
1.77655e-07
1.61715e-07
1.47366e-07
1.34434e-07
1.18183e-06
1.05361e-06
9.40321e-07
8.40145e-07
7.51487e-07
6.72956e-07
6.03332e-07
5.41545e-07
4.86662e-07
4.37862e-07
3.94426e-07
3.55723e-07
3.21202e-07
2.90376e-07
2.62821e-07
2.38159e-07
2.16063e-07
1.96243e-07
1.78442e-07
1.62438e-07
1.48029e-07
1.35043e-07
1.18767e-06
1.05889e-06
9.45095e-07
8.44468e-07
7.55407e-07
6.76514e-07
6.06564e-07
5.44486e-07
4.89339e-07
4.40302e-07
3.96652e-07
3.57757e-07
3.23061e-07
2.92079e-07
2.6438e-07
2.3959e-07
2.17377e-07
1.9745e-07
1.79552e-07
1.63459e-07
1.4897e-07
1.3591e-07
1.19541e-06
1.06589e-06
9.51433e-07
8.50213e-07
7.60622e-07
6.81252e-07
6.10874e-07
5.4841e-07
4.92917e-07
4.43567e-07
3.99635e-07
3.60485e-07
3.2556e-07
2.94368e-07
2.66481e-07
2.41518e-07
2.19149e-07
1.99078e-07
1.81052e-07
1.64839e-07
1.50242e-07
1.37084e-07
1.20504e-06
1.07462e-06
9.59359e-07
8.57417e-07
7.67176e-07
6.87222e-07
6.16318e-07
5.53379e-07
4.97458e-07
4.4772e-07
4.03438e-07
3.63971e-07
3.28758e-07
2.97305e-07
2.69179e-07
2.44001e-07
2.21432e-07
2.01184e-07
1.8299e-07
1.66628e-07
1.51891e-07
1.38606e-07
1.21666e-06
1.08518e-06
9.68973e-07
8.66177e-07
7.75166e-07
6.94518e-07
6.22987e-07
5.59482e-07
5.03047e-07
4.52844e-07
4.0814e-07
3.68289e-07
3.32727e-07
3.00956e-07
2.7254e-07
2.47096e-07
2.24287e-07
2.03815e-07
1.85421e-07
1.68871e-07
1.53966e-07
1.40523e-07
1.23032e-06
1.09764e-06
9.80344e-07
8.76565e-07
7.84666e-07
7.03214e-07
6.30955e-07
5.6679e-07
5.09755e-07
4.59007e-07
4.13807e-07
3.73504e-07
3.3753e-07
3.05381e-07
2.76622e-07
2.50862e-07
2.27764e-07
2.07028e-07
1.8839e-07
1.71618e-07
1.56507e-07
1.42877e-07
1.24606e-06
1.11203e-06
9.93513e-07
8.88628e-07
7.95726e-07
7.13364e-07
6.40278e-07
5.7536e-07
5.17639e-07
4.66267e-07
4.20495e-07
3.79671e-07
3.43219e-07
3.10635e-07
2.81473e-07
2.55348e-07
2.31912e-07
2.10867e-07
1.91943e-07
1.74909e-07
1.59557e-07
1.45703e-07
1.26371e-06
1.12822e-06
1.00838e-06
9.02291e-07
8.08294e-07
7.24932e-07
6.50934e-07
5.85183e-07
5.26701e-07
4.74631e-07
4.28221e-07
3.8681e-07
3.4982e-07
3.16741e-07
2.87127e-07
2.60582e-07
2.36763e-07
2.15362e-07
1.96113e-07
1.78777e-07
1.63146e-07
1.49036e-07
1.28374e-06
1.14662e-06
1.02531e-06
9.17869e-07
8.22642e-07
7.38158e-07
6.63133e-07
5.96442e-07
5.37099e-07
4.8424e-07
4.37105e-07
3.95029e-07
3.57427e-07
3.23786e-07
2.93653e-07
2.66632e-07
2.42371e-07
2.20565e-07
2.0094e-07
1.83259e-07
1.67308e-07
1.52902e-07
1.3054e-06
1.16661e-06
1.04376e-06
9.34923e-07
8.38407e-07
7.5274e-07
6.76627e-07
6.08936e-07
5.48672e-07
4.94965e-07
4.47048e-07
4.04251e-07
3.65984e-07
3.31727e-07
3.01026e-07
2.73479e-07
2.48733e-07
2.26477e-07
2.06436e-07
1.88368e-07
1.7206e-07
1.57322e-07
1.32881e-06
1.18829e-06
1.06384e-06
9.53533e-07
8.55662e-07
7.68743e-07
6.91476e-07
6.22718e-07
5.61469e-07
5.0685e-07
4.5809e-07
4.14512e-07
3.75522e-07
3.40596e-07
3.09274e-07
2.81151e-07
2.55871e-07
2.33119e-07
2.12618e-07
1.94122e-07
1.77417e-07
1.6231e-07
1.35377e-06
1.21149e-06
1.08541e-06
9.73584e-07
8.74309e-07
7.8609e-07
7.07615e-07
6.37737e-07
5.75447e-07
5.19862e-07
4.70205e-07
4.25793e-07
3.86028e-07
3.50382e-07
3.1839e-07
2.89644e-07
2.63784e-07
2.40493e-07
2.1949e-07
2.00527e-07
1.83386e-07
1.67874e-07
1.35378e-06
1.21149e-06
1.08541e-06
9.73587e-07
8.74312e-07
7.86092e-07
7.07618e-07
6.37739e-07
5.75449e-07
5.19864e-07
4.70207e-07
4.25795e-07
3.8603e-07
3.50383e-07
3.18391e-07
2.89646e-07
2.63786e-07
2.40494e-07
2.19491e-07
2.00528e-07
1.83387e-07
1.67875e-07
1.32882e-06
1.1883e-06
1.06385e-06
9.53543e-07
8.55671e-07
7.68752e-07
6.91484e-07
6.22726e-07
5.61476e-07
5.06856e-07
4.58096e-07
4.14518e-07
3.75527e-07
3.40601e-07
3.09278e-07
2.81155e-07
2.55875e-07
2.33123e-07
2.12621e-07
1.94126e-07
1.7742e-07
1.62313e-07
1.30542e-06
1.16663e-06
1.04378e-06
9.34941e-07
8.38424e-07
7.52756e-07
6.76642e-07
6.08949e-07
5.48685e-07
4.94976e-07
4.47058e-07
4.04261e-07
3.65992e-07
3.31735e-07
3.01034e-07
2.73486e-07
2.48739e-07
2.26483e-07
2.06441e-07
1.88373e-07
1.72064e-07
1.57325e-07
1.28376e-06
1.14665e-06
1.02533e-06
9.17895e-07
8.22667e-07
7.38181e-07
6.63154e-07
5.96462e-07
5.37117e-07
4.84256e-07
4.3712e-07
3.95042e-07
3.57439e-07
3.23797e-07
2.93663e-07
2.6664e-07
2.4238e-07
2.20572e-07
2.00947e-07
1.83264e-07
1.67313e-07
1.52906e-07
1.26375e-06
1.12826e-06
1.00842e-06
9.02325e-07
8.08326e-07
7.24963e-07
6.50962e-07
5.85208e-07
5.26724e-07
4.74652e-07
4.28239e-07
3.86827e-07
3.49835e-07
3.16755e-07
2.87139e-07
2.60593e-07
2.36772e-07
2.15371e-07
1.9612e-07
1.78784e-07
1.63152e-07
1.49042e-07
1.24611e-06
1.11207e-06
9.93555e-07
8.88669e-07
7.95766e-07
7.13401e-07
6.40312e-07
5.75391e-07
5.17668e-07
4.66293e-07
4.20519e-07
3.79692e-07
3.43238e-07
3.10651e-07
2.81489e-07
2.55361e-07
2.31924e-07
2.10877e-07
1.91953e-07
1.74918e-07
1.59565e-07
1.45711e-07
1.23037e-06
1.09769e-06
9.80391e-07
8.76611e-07
7.8471e-07
7.03256e-07
6.30994e-07
5.66826e-07
5.09789e-07
4.59039e-07
4.13835e-07
3.7353e-07
3.37552e-07
3.05402e-07
2.7664e-07
2.50879e-07
2.27779e-07
2.07042e-07
1.88403e-07
1.7163e-07
1.56518e-07
1.42887e-07
1.21671e-06
1.08523e-06
9.69022e-07
8.66225e-07
7.75213e-07
6.94563e-07
6.23029e-07
5.59522e-07
5.03085e-07
4.5288e-07
4.08173e-07
3.6832e-07
3.32754e-07
3.00981e-07
2.72563e-07
2.47117e-07
2.24306e-07
2.03832e-07
1.85436e-07
1.68885e-07
1.53978e-07
1.40535e-07
1.20509e-06
1.07467e-06
9.59409e-07
8.57465e-07
7.67223e-07
6.87267e-07
6.16362e-07
5.53421e-07
4.97498e-07
4.47759e-07
4.03474e-07
3.64005e-07
3.28789e-07
2.97334e-07
2.69206e-07
2.44024e-07
2.21455e-07
2.01202e-07
1.83009e-07
1.66643e-07
1.51907e-07
1.38619e-07
1.19546e-06
1.06594e-06
9.51482e-07
8.50262e-07
7.60669e-07
6.81298e-07
6.10918e-07
5.48453e-07
4.92958e-07
4.43606e-07
3.99672e-07
3.60521e-07
3.25594e-07
2.94401e-07
2.6651e-07
2.41547e-07
2.19174e-07
1.99103e-07
1.81072e-07
1.64859e-07
1.50258e-07
1.37098e-07
1.18772e-06
1.05894e-06
9.45147e-07
8.44519e-07
7.55456e-07
6.76561e-07
6.06609e-07
5.44529e-07
4.89381e-07
4.40341e-07
3.9669e-07
3.57794e-07
3.23097e-07
2.92113e-07
2.64413e-07
2.3962e-07
2.17406e-07
1.97476e-07
1.79576e-07
1.6348e-07
1.48989e-07
1.35927e-07
1.18189e-06
1.05367e-06
9.40378e-07
8.402e-07
7.51541e-07
6.73008e-07
6.0338e-07
5.41591e-07
4.86705e-07
4.37903e-07
3.94464e-07
3.5576e-07
3.21237e-07
2.90411e-07
2.62853e-07
2.3819e-07
2.16092e-07
1.9627e-07
1.78467e-07
1.62459e-07
1.4805e-07
1.3506e-07
1.17729e-06
1.04954e-06
9.36671e-07
8.36864e-07
7.48536e-07
6.70297e-07
6.00932e-07
5.39378e-07
4.84701e-07
4.36086e-07
3.92816e-07
3.54263e-07
3.19875e-07
2.89171e-07
2.61722e-07
2.37159e-07
2.1515e-07
1.95408e-07
1.77678e-07
1.61737e-07
1.47387e-07
1.34453e-07
1.17455e-06
1.04707e-06
9.34445e-07
8.34855e-07
7.46719e-07
6.68653e-07
5.99443e-07
5.38027e-07
4.83475e-07
4.34971e-07
3.91801e-07
3.53338e-07
3.19032e-07
2.884e-07
2.61019e-07
2.36514e-07
2.14561e-07
1.94867e-07
1.77182e-07
1.61282e-07
1.46967e-07
1.34068e-07
1.17426e-06
1.0468e-06
9.3419e-07
8.34616e-07
7.46496e-07
6.68444e-07
5.99247e-07
5.37843e-07
4.83303e-07
4.3481e-07
3.91651e-07
3.53198e-07
3.18901e-07
2.88278e-07
2.60904e-07
2.36407e-07
2.1446e-07
1.94774e-07
1.77095e-07
1.61199e-07
1.46892e-07
1.33996e-07
1.17096e-06
1.17111e-06
1.17368e-06
1.17792e-06
1.18316e-06
1.18997e-06
1.19834e-06
1.20824e-06
1.2196e-06
1.23235e-06
1.24631e-06
1.26192e-06
1.27835e-06
1.29565e-06
1.3136e-06
1.24198e-06
1.21887e-06
1.19688e-06
1.17618e-06
1.15687e-06
1.13876e-06
1.12269e-06
1.10804e-06
1.09502e-06
1.08363e-06
1.07385e-06
1.06563e-06
1.0589e-06
1.05367e-06
1.04925e-06
1.03793e-06
1.03807e-06
1.04034e-06
1.0441e-06
1.04877e-06
1.05488e-06
1.0624e-06
1.07136e-06
1.08169e-06
1.09334e-06
1.10617e-06
1.12057e-06
1.13585e-06
1.15205e-06
1.16899e-06
1.10789e-06
1.08675e-06
1.0667e-06
1.04786e-06
1.03034e-06
1.01396e-06
9.99422e-07
9.86208e-07
9.74486e-07
9.64248e-07
9.55472e-07
9.48108e-07
9.42089e-07
9.37407e-07
9.33446e-07
9.20898e-07
9.21016e-07
9.23032e-07
9.26374e-07
9.30552e-07
9.36023e-07
9.42798e-07
9.50916e-07
9.60321e-07
9.70969e-07
9.82769e-07
9.96073e-07
1.01029e-06
1.02545e-06
1.04142e-06
9.89401e-07
9.7006e-07
9.51754e-07
9.34592e-07
9.18665e-07
9.03823e-07
8.90662e-07
8.78726e-07
8.6816e-07
8.58947e-07
8.51063e-07
8.44457e-07
8.39063e-07
8.34869e-07
8.31324e-07
8.17864e-07
8.17969e-07
8.19763e-07
8.22736e-07
8.26478e-07
8.31388e-07
8.37493e-07
8.44854e-07
8.53433e-07
8.63184e-07
8.7404e-07
8.86329e-07
8.99561e-07
9.13749e-07
9.28791e-07
8.84618e-07
8.66898e-07
8.50167e-07
8.34514e-07
8.2002e-07
8.06557e-07
7.94623e-07
7.83828e-07
7.74291e-07
7.6599e-07
7.58898e-07
7.52965e-07
7.48127e-07
7.44364e-07
7.41187e-07
7.27094e-07
7.27189e-07
7.28788e-07
7.31436e-07
7.34795e-07
7.39209e-07
7.44713e-07
7.51391e-07
7.59227e-07
7.68171e-07
7.78167e-07
7.8952e-07
8.01837e-07
8.15118e-07
8.29275e-07
7.91868e-07
7.75615e-07
7.60307e-07
7.46016e-07
7.32808e-07
7.2058e-07
7.09747e-07
6.9997e-07
6.91351e-07
6.83863e-07
6.77475e-07
6.72138e-07
6.67792e-07
6.64413e-07
6.61563e-07
6.47072e-07
6.47158e-07
6.48586e-07
6.50948e-07
6.53968e-07
6.57945e-07
6.62914e-07
6.68971e-07
6.76134e-07
6.84352e-07
6.93565e-07
7.04056e-07
7.15519e-07
7.27953e-07
7.41267e-07
7.09691e-07
6.94767e-07
6.80747e-07
6.67686e-07
6.55637e-07
6.44515e-07
6.34668e-07
6.25805e-07
6.18004e-07
6.1124e-07
6.05478e-07
6.00673e-07
5.96765e-07
5.93725e-07
5.91167e-07
5.76471e-07
5.76551e-07
5.77827e-07
5.79937e-07
5.82657e-07
5.86246e-07
5.90741e-07
5.96238e-07
6.02785e-07
6.10345e-07
6.1885e-07
6.28548e-07
6.39213e-07
6.5085e-07
6.6337e-07
6.36813e-07
6.23094e-07
6.10239e-07
5.9829e-07
5.87287e-07
5.77158e-07
5.68196e-07
5.6015e-07
5.53082e-07
5.46964e-07
5.4176e-07
5.37428e-07
5.33909e-07
5.31172e-07
5.28874e-07
5.14134e-07
5.14208e-07
5.1535e-07
5.17237e-07
5.19691e-07
5.22937e-07
5.27011e-07
5.32004e-07
5.37988e-07
5.44947e-07
5.52809e-07
5.61779e-07
5.71698e-07
5.82587e-07
5.94357e-07
5.72116e-07
5.59491e-07
5.47691e-07
5.36749e-07
5.26691e-07
5.17455e-07
5.09289e-07
5.01976e-07
4.95563e-07
4.90023e-07
4.85318e-07
4.81406e-07
4.78234e-07
4.75766e-07
4.737e-07
4.59049e-07
4.59119e-07
4.60143e-07
4.61832e-07
4.64048e-07
4.66989e-07
4.70688e-07
4.75231e-07
4.80698e-07
4.87106e-07
4.94383e-07
5.02688e-07
5.1191e-07
5.22092e-07
5.33153e-07
5.14624e-07
5.02994e-07
4.92149e-07
4.82118e-07
4.72916e-07
4.64485e-07
4.57035e-07
4.50381e-07
4.44555e-07
4.39532e-07
4.35273e-07
4.31736e-07
4.28871e-07
4.26643e-07
4.24785e-07
4.10331e-07
4.10397e-07
4.11316e-07
4.12831e-07
4.14835e-07
4.17502e-07
4.20869e-07
4.25008e-07
4.30005e-07
4.35902e-07
4.42645e-07
4.50344e-07
4.58917e-07
4.68432e-07
4.78822e-07
4.63478e-07
4.52758e-07
4.42779e-07
4.33572e-07
4.25144e-07
4.17442e-07
4.10636e-07
4.04574e-07
3.99276e-07
3.94716e-07
3.90855e-07
3.87653e-07
3.85064e-07
3.8305e-07
3.81377e-07
3.67206e-07
3.67268e-07
3.68096e-07
3.69455e-07
3.71269e-07
3.73692e-07
3.76761e-07
3.80541e-07
3.85111e-07
3.90535e-07
3.96783e-07
4.03931e-07
4.11905e-07
4.20787e-07
4.3054e-07
4.17928e-07
4.0804e-07
3.98849e-07
3.90388e-07
3.82662e-07
3.75619e-07
3.69395e-07
3.63865e-07
3.59042e-07
3.54896e-07
3.51392e-07
3.48491e-07
3.46147e-07
3.44325e-07
3.42817e-07
3.28999e-07
3.29057e-07
3.29802e-07
3.31024e-07
3.32668e-07
3.3487e-07
3.37672e-07
3.41132e-07
3.45317e-07
3.50303e-07
3.5609e-07
3.62733e-07
3.70157e-07
3.78444e-07
3.87589e-07
3.77313e-07
3.68189e-07
3.59717e-07
3.51934e-07
3.44843e-07
3.38396e-07
3.327e-07
3.27649e-07
3.23252e-07
3.19478e-07
3.16295e-07
3.13663e-07
3.11539e-07
3.09887e-07
3.08528e-07
2.95117e-07
2.9517e-07
2.95843e-07
2.96943e-07
2.98433e-07
3.00438e-07
3.02999e-07
3.06169e-07
3.10011e-07
3.14595e-07
3.19949e-07
3.26125e-07
3.33043e-07
3.40776e-07
3.49342e-07
3.41056e-07
3.32634e-07
3.24822e-07
3.17654e-07
3.11139e-07
3.05231e-07
3.00013e-07
2.95395e-07
2.91381e-07
2.87944e-07
2.85047e-07
2.82656e-07
2.80729e-07
2.79231e-07
2.78004e-07
2.65041e-07
2.6509e-07
2.65697e-07
2.66689e-07
2.68043e-07
2.69868e-07
2.72211e-07
2.75121e-07
2.78652e-07
2.82871e-07
2.87821e-07
2.9356e-07
3.00014e-07
3.07232e-07
3.15248e-07
3.08652e-07
3.00874e-07
2.93667e-07
2.87062e-07
2.81069e-07
2.7565e-07
2.70865e-07
2.66638e-07
2.62971e-07
2.59834e-07
2.57197e-07
2.55022e-07
2.53272e-07
2.51911e-07
2.50803e-07
2.38318e-07
2.38362e-07
2.3891e-07
2.39805e-07
2.41037e-07
2.42701e-07
2.44845e-07
2.47519e-07
2.50771e-07
2.5466e-07
2.59234e-07
2.64562e-07
2.70584e-07
2.77327e-07
2.84825e-07
2.79658e-07
2.7247e-07
2.65819e-07
2.59729e-07
2.54212e-07
2.49236e-07
2.44843e-07
2.4097e-07
2.37616e-07
2.34751e-07
2.32346e-07
2.30366e-07
2.28774e-07
2.27538e-07
2.26536e-07
2.14548e-07
2.14589e-07
2.15084e-07
2.15893e-07
2.17015e-07
2.18533e-07
2.20496e-07
2.22954e-07
2.25953e-07
2.29543e-07
2.33773e-07
2.38713e-07
2.44331e-07
2.50635e-07
2.57648e-07
2.53687e-07
2.47036e-07
2.40897e-07
2.35281e-07