/*--------------------------------*- C++ -*----------------------------------*\
| =========                 |                                                 |
| \\      /  F ield         | OpenFOAM Extend Project: Open source CFD        |
|  \\    /   O peration     | Version:  1.6-ext                               |
|   \\  /    A nd           | Web:      www.extend-project.de                 |
|    \\/     M anipulation  |                                                 |
\*---------------------------------------------------------------------------*/
FoamFile
{
    version     2.0;
    format      ascii;
    class       vectorField;
    location    "0.2";
    object      accumulatedFluidInterfaceDisplacement;
}
// * * * * * * * * * * * * * * * * * * * * * * * * * * * * * * * * * * * * * //


338
(
(-2.91907e-06 2.00678e-07 1.12345e-27)
(-3.02244e-06 -5.88658e-07 -8.96527e-27)
(-1.40498e-05 -1.0433e-05 9.19115e-28)
(-1.41104e-05 -1.02602e-05 -8.66653e-28)
(-1.41056e-05 -1.00339e-05 3.72676e-27)
(-1.40916e-05 -9.80931e-06 1.53795e-27)
(-1.40675e-05 -9.58578e-06 -6.81946e-27)
(-1.40333e-05 -9.36371e-06 2.83496e-27)
(-1.39895e-05 -9.14346e-06 7.76638e-27)
(-1.39364e-05 -8.92527e-06 -8.29519e-29)
(-1.38746e-05 -8.70921e-06 -1.16194e-27)
(-1.38043e-05 -8.49528e-06 1.35967e-27)
(-1.37259e-05 -8.28342e-06 -3.04009e-27)
(-1.36397e-05 -8.07355e-06 -4.3872e-27)
(-1.35459e-05 -7.86559e-06 -4.6966e-28)
(-1.34447e-05 -7.65946e-06 -2.28625e-28)
(-1.33363e-05 -7.45508e-06 -3.36964e-27)
(-1.32209e-05 -7.25237e-06 -4.86926e-27)
(-1.30987e-05 -7.05124e-06 -1.43187e-27)
(-1.29699e-05 -6.85161e-06 -2.24438e-27)
(-1.28347e-05 -6.65339e-06 -3.90127e-27)
(-1.26932e-05 -6.45649e-06 6.52429e-28)
(-1.25457e-05 -6.26081e-06 4.27978e-27)
(-1.23923e-05 -6.06625e-06 1.11521e-27)
(-1.22332e-05 -5.87271e-06 1.41402e-27)
(-1.20686e-05 -5.6801e-06 1.41712e-27)
(-1.18986e-05 -5.48835e-06 -6.38564e-27)
(-1.17233e-05 -5.29738e-06 -6.03048e-27)
(-1.1543e-05 -5.10713e-06 1.4833e-27)
(-1.13577e-05 -4.91759e-06 8.14675e-27)
(-1.11676e-05 -4.72875e-06 -2.04366e-27)
(-1.09728e-05 -4.54062e-06 -5.92223e-27)
(-1.07733e-05 -4.35328e-06 3.79315e-29)
(-1.05694e-05 -4.16682e-06 5.15884e-28)
(-1.03611e-05 -3.98135e-06 -1.62651e-27)
(-1.01485e-05 -3.79706e-06 -3.8461e-27)
(-9.93167e-06 -3.61415e-06 -1.42283e-27)
(-9.71074e-06 -3.43287e-06 7.91624e-27)
(-9.48578e-06 -3.2535e-06 9.03836e-28)
(-9.25686e-06 -3.07638e-06 -5.13581e-27)
(-9.02408e-06 -2.90186e-06 1.42603e-27)
(-8.7875e-06 -2.73034e-06 -1.79347e-27)
(-8.54721e-06 -2.56224e-06 -8.22737e-27)
(-8.30326e-06 -2.39803e-06 -8.06367e-28)
(-8.05574e-06 -2.23816e-06 6.74492e-27)
(-7.8047e-06 -2.08314e-06 1.18767e-27)
(-7.5502e-06 -1.93345e-06 -6.34762e-27)
(-7.29228e-06 -1.7896e-06 -2.40014e-27)
(-7.03096e-06 -1.6521e-06 9.53102e-28)
(-6.76627e-06 -1.52144e-06 5.34875e-28)
(-6.4982e-06 -1.3981e-06 7.04884e-27)
(-6.22672e-06 -1.28254e-06 1.13375e-27)
(-5.95182e-06 -1.17518e-06 -4.14669e-27)
(-5.67342e-06 -1.0764e-06 5.11728e-27)
(-5.39148e-06 -9.86503e-07 -2.5089e-27)
(-5.10594e-06 -9.05736e-07 -1.81918e-27)
(-4.81675e-06 -8.34225e-07 4.12323e-27)
(-4.52393e-06 -7.71976e-07 -6.84997e-27)
(-4.22756e-06 -7.18838e-07 5.91785e-28)
(-3.92781e-06 -6.74488e-07 7.48721e-27)
(-3.62501e-06 -6.38406e-07 5.42275e-27)
(-3.31964e-06 -6.09889e-07 -3.94212e-27)
(-1.36426e-05 -1.0488e-05 2.89029e-27)
(-1.38728e-05 -1.04906e-05 1.02174e-26)
(-1.32467e-05 -1.04228e-05 1.78179e-26)
(-1.34155e-05 -1.04841e-05 3.5838e-27)
(-3.18966e-06 1.70173e-07 9.57068e-28)
(-3.46489e-06 1.30104e-07 -1.11668e-26)
(-3.73553e-06 8.11509e-08 -7.49559e-29)
(-4.00173e-06 2.32674e-08 1.37481e-26)
(-4.26369e-06 -4.34778e-08 -2.28972e-27)
(-4.5217e-06 -1.1897e-07 -1.37499e-26)
(-4.77607e-06 -2.0306e-07 7.24399e-27)
(-5.02715e-06 -2.95581e-07 3.95497e-27)
(-5.27525e-06 -3.9634e-07 -8.81456e-27)
(-5.52069e-06 -5.05125e-07 1.45967e-28)
(-5.76374e-06 -6.21693e-07 6.08806e-29)
(-6.00464e-06 -7.45768e-07 4.49972e-27)
(-6.24356e-06 -8.77047e-07 4.70742e-27)
(-6.48065e-06 -1.01519e-06 -4.75249e-27)
(-6.716e-06 -1.15984e-06 -3.83666e-27)
(-6.94966e-06 -1.31061e-06 -1.24417e-27)
(-7.18165e-06 -1.4671e-06 -6.68538e-27)
(-7.41194e-06 -1.6289e-06 2.95166e-27)
(-7.64047e-06 -1.79557e-06 8.213e-27)
(-7.86715e-06 -1.96672e-06 -1.54416e-27)
(-8.09186e-06 -2.14192e-06 -5.45016e-27)
(-8.31446e-06 -2.32077e-06 3.98165e-27)
(-8.53479e-06 -2.50289e-06 -1.45212e-27)
(-8.75266e-06 -2.68793e-06 -2.72511e-27)
(-8.96788e-06 -2.87556e-06 -3.71732e-27)
(-9.18023e-06 -3.06548e-06 -8.50172e-27)
(-9.3895e-06 -3.25741e-06 5.17123e-27)
(-9.59545e-06 -3.45114e-06 1.20264e-26)
(-9.79786e-06 -3.64647e-06 2.50711e-27)
(-9.99648e-06 -3.84323e-06 -5.70535e-27)
(-1.01911e-05 -4.04132e-06 -6.70401e-27)
(-1.03814e-05 -4.24065e-06 -1.9297e-27)
(-1.05673e-05 -4.44116e-06 5.89115e-27)
(-1.07484e-05 -4.64283e-06 5.4363e-27)
(-1.09246e-05 -4.84566e-06 2.26105e-27)
(-1.10956e-05 -5.04969e-06 -1.38241e-27)
(-1.12612e-05 -5.25496e-06 -3.37932e-27)
(-1.14212e-05 -5.46155e-06 -2.7191e-28)
(-1.15755e-05 -5.66953e-06 -2.4705e-27)
(-1.17237e-05 -5.87899e-06 -1.08406e-27)
(-1.18658e-05 -6.09004e-06 9.73447e-28)
(-1.20015e-05 -6.30275e-06 1.63542e-27)
(-1.21308e-05 -6.51724e-06 1.28076e-27)
(-1.22533e-05 -6.73358e-06 3.42941e-27)
(-1.23689e-05 -6.95187e-06 -9.86431e-28)
(-1.24776e-05 -7.1722e-06 -6.04239e-27)
(-1.2579e-05 -7.39463e-06 4.12117e-27)
(-1.26731e-05 -7.61927e-06 5.65805e-27)
(-1.27596e-05 -7.84618e-06 -5.18305e-27)
(-1.28384e-05 -8.07547e-06 -1.3639e-27)
(-1.29093e-05 -8.30722e-06 1.11084e-26)
(-1.29723e-05 -8.54152e-06 8.3094e-27)
(-1.30271e-05 -8.77846e-06 1.31596e-27)
(-1.30737e-05 -9.01807e-06 -3.62957e-27)
(-1.3112e-05 -9.26031e-06 -2.67401e-27)
(-1.31422e-05 -9.50499e-06 3.11604e-27)
(-1.31645e-05 -9.75159e-06 1.41121e-27)
(-1.31795e-05 -9.99887e-06 -4.05813e-27)
(-1.31882e-05 -1.02434e-05 4.84135e-27)
(-2.03169e-07 1.15389e-07 -4.80425e-27)
(-2.00887e-07 1.48477e-07 6.95995e-28)
(-2.04243e-07 2.06052e-07 4.60863e-27)
(-2.24568e-07 2.46158e-07 -4.90773e-28)
(-2.62565e-07 2.71417e-07 -1.87119e-27)
(-3.16266e-07 2.86085e-07 4.44802e-27)
(-3.8329e-07 2.92992e-07 9.28508e-28)
(-4.62127e-07 2.9458e-07 -2.222e-27)
(-5.51737e-07 2.92641e-07 -4.60621e-28)
(-6.51536e-07 2.88591e-07 2.31737e-27)
(-7.61215e-07 2.83491e-07 -3.12256e-27)
(-8.80676e-07 2.78131e-07 -6.56568e-27)
(-1.00997e-06 2.73056e-07 2.83783e-27)
(-1.14926e-06 2.68586e-07 3.63391e-27)
(-1.29882e-06 2.6483e-07 1.28828e-27)
(-1.45899e-06 2.61685e-07 -9.01862e-28)
(-1.63018e-06 2.58833e-07 -1.27126e-27)
(-1.81283e-06 2.55736e-07 -1.17646e-27)
(-2.00742e-06 2.51621e-07 -3.94583e-27)
(-2.21442e-06 2.45478e-07 1.93266e-27)
(-2.43428e-06 2.36049e-07 7.11157e-27)
(-2.66743e-06 2.2184e-07 3.85833e-28)
(-2.78792e-07 -1.476e-07 -2.66623e-27)
(-2.74926e-06 -5.73896e-07 -6.4508e-27)
(-2.49934e-06 -5.63575e-07 -3.55493e-28)
(-2.26677e-06 -5.56053e-07 2.49802e-27)
(-2.05077e-06 -5.50324e-07 -1.06166e-27)
(-1.85047e-06 -5.45635e-07 1.89232e-27)
(-1.66493e-06 -5.41425e-07 4.0863e-27)
(-1.49319e-06 -5.37281e-07 8.15627e-28)
(-1.33427e-06 -5.32895e-07 -1.63339e-27)
(-1.1873e-06 -5.28017e-07 -1.34238e-27)
(-1.05146e-06 -5.22416e-07 -7.47597e-29)
(-9.26066e-07 -5.15831e-07 -3.93703e-28)
(-8.10576e-07 -5.07928e-07 -5.65176e-28)
(-7.0464e-07 -4.98246e-07 -2.43661e-28)
(-6.08129e-07 -4.86136e-07 1.31544e-27)
(-5.21223e-07 -4.70692e-07 -9.38995e-28)
(-4.44489e-07 -4.50629e-07 -5.04576e-28)
(-3.79098e-07 -4.24217e-07 1.09067e-27)
(-3.26871e-07 -3.88944e-07 -3.0346e-28)
(-2.90735e-07 -3.41762e-07 -1.09128e-28)
(-2.73295e-07 -2.77904e-07 5.20322e-28)
(-2.74109e-07 -1.94295e-07 -4.19363e-28)
(-2.91907e-06 2.00678e-07 1.12345e-27)
(-3.02244e-06 -5.88658e-07 -8.96527e-27)
(-1.40498e-05 -1.0433e-05 9.19115e-28)
(-1.41104e-05 -1.02602e-05 -8.66653e-28)
(-1.41056e-05 -1.00339e-05 3.72676e-27)
(-1.40916e-05 -9.80931e-06 1.53795e-27)
(-1.40675e-05 -9.58578e-06 -6.81946e-27)
(-1.40333e-05 -9.36371e-06 2.83496e-27)
(-1.39895e-05 -9.14346e-06 7.76638e-27)
(-1.39364e-05 -8.92527e-06 -8.29519e-29)
(-1.38746e-05 -8.70921e-06 -1.16194e-27)
(-1.38043e-05 -8.49528e-06 1.35967e-27)
(-1.37259e-05 -8.28342e-06 -3.04009e-27)
(-1.36397e-05 -8.07355e-06 -4.3872e-27)
(-1.35459e-05 -7.86559e-06 -4.6966e-28)
(-1.34447e-05 -7.65946e-06 -2.28625e-28)
(-1.33363e-05 -7.45508e-06 -3.36964e-27)
(-1.32209e-05 -7.25237e-06 -4.86926e-27)
(-1.30987e-05 -7.05124e-06 -1.43187e-27)
(-1.29699e-05 -6.85161e-06 -2.24438e-27)
(-1.28347e-05 -6.65339e-06 -3.90127e-27)
(-1.26932e-05 -6.45649e-06 6.52429e-28)
(-1.25457e-05 -6.26081e-06 4.27978e-27)
(-1.23923e-05 -6.06625e-06 1.11521e-27)
(-1.22332e-05 -5.87271e-06 1.41402e-27)
(-1.20686e-05 -5.6801e-06 1.41712e-27)
(-1.18986e-05 -5.48835e-06 -6.38564e-27)
(-1.17233e-05 -5.29738e-06 -6.03048e-27)
(-1.1543e-05 -5.10713e-06 1.4833e-27)
(-1.13577e-05 -4.91759e-06 8.14675e-27)
(-1.11676e-05 -4.72875e-06 -2.04366e-27)
(-1.09728e-05 -4.54062e-06 -5.92223e-27)
(-1.07733e-05 -4.35328e-06 3.79315e-29)
(-1.05694e-05 -4.16682e-06 5.15884e-28)
(-1.03611e-05 -3.98135e-06 -1.62651e-27)
(-1.01485e-05 -3.79706e-06 -3.8461e-27)
(-9.93167e-06 -3.61415e-06 -1.42283e-27)
(-9.71074e-06 -3.43287e-06 7.91624e-27)
(-9.48578e-06 -3.2535e-06 9.03836e-28)
(-9.25686e-06 -3.07638e-06 -5.13581e-27)
(-9.02408e-06 -2.90186e-06 1.42603e-27)
(-8.7875e-06 -2.73034e-06 -1.79347e-27)
(-8.54721e-06 -2.56224e-06 -8.22737e-27)
(-8.30326e-06 -2.39803e-06 -8.06367e-28)
(-8.05574e-06 -2.23816e-06 6.74492e-27)
(-7.8047e-06 -2.08314e-06 1.18767e-27)
(-7.5502e-06 -1.93345e-06 -6.34762e-27)
(-7.29228e-06 -1.7896e-06 -2.40014e-27)
(-7.03096e-06 -1.6521e-06 9.53102e-28)
(-6.76627e-06 -1.52144e-06 5.34875e-28)
(-6.4982e-06 -1.3981e-06 7.04884e-27)
(-6.22672e-06 -1.28254e-06 1.13375e-27)
(-5.95182e-06 -1.17518e-06 -4.14669e-27)
(-5.67342e-06 -1.0764e-06 5.11728e-27)
(-5.39148e-06 -9.86503e-07 -2.5089e-27)
(-5.10594e-06 -9.05736e-07 -1.81918e-27)
(-4.81675e-06 -8.34225e-07 4.12323e-27)
(-4.52393e-06 -7.71976e-07 -6.84997e-27)
(-4.22756e-06 -7.18838e-07 5.91785e-28)
(-3.92781e-06 -6.74488e-07 7.48721e-27)
(-3.62501e-06 -6.38406e-07 5.42275e-27)
(-3.31964e-06 -6.09889e-07 -3.94212e-27)
(-1.36426e-05 -1.0488e-05 2.89029e-27)
(-1.38728e-05 -1.04906e-05 1.02174e-26)
(-1.32467e-05 -1.04228e-05 1.78179e-26)
(-1.34155e-05 -1.04841e-05 3.5838e-27)
(-3.18966e-06 1.70173e-07 9.57068e-28)
(-3.46489e-06 1.30104e-07 -1.11668e-26)
(-3.73553e-06 8.11509e-08 -7.49559e-29)
(-4.00173e-06 2.32674e-08 1.37481e-26)
(-4.26369e-06 -4.34778e-08 -2.28972e-27)
(-4.5217e-06 -1.1897e-07 -1.37499e-26)
(-4.77607e-06 -2.0306e-07 7.24399e-27)
(-5.02715e-06 -2.95581e-07 3.95497e-27)
(-5.27525e-06 -3.9634e-07 -8.81456e-27)
(-5.52069e-06 -5.05125e-07 1.45967e-28)
(-5.76374e-06 -6.21693e-07 6.08806e-29)
(-6.00464e-06 -7.45768e-07 4.49972e-27)
(-6.24356e-06 -8.77047e-07 4.70742e-27)
(-6.48065e-06 -1.01519e-06 -4.75249e-27)
(-6.716e-06 -1.15984e-06 -3.83666e-27)
(-6.94966e-06 -1.31061e-06 -1.24417e-27)
(-7.18165e-06 -1.4671e-06 -6.68538e-27)
(-7.41194e-06 -1.6289e-06 2.95166e-27)
(-7.64047e-06 -1.79557e-06 8.213e-27)
(-7.86715e-06 -1.96672e-06 -1.54416e-27)
(-8.09186e-06 -2.14192e-06 -5.45016e-27)
(-8.31446e-06 -2.32077e-06 3.98165e-27)
(-8.53479e-06 -2.50289e-06 -1.45212e-27)
(-8.75266e-06 -2.68793e-06 -2.72511e-27)
(-8.96788e-06 -2.87556e-06 -3.71732e-27)
(-9.18023e-06 -3.06548e-06 -8.50172e-27)
(-9.3895e-06 -3.25741e-06 5.17123e-27)
(-9.59545e-06 -3.45114e-06 1.20264e-26)
(-9.79786e-06 -3.64647e-06 2.50711e-27)
(-9.99648e-06 -3.84323e-06 -5.70535e-27)
(-1.01911e-05 -4.04132e-06 -6.70401e-27)
(-1.03814e-05 -4.24065e-06 -1.9297e-27)
(-1.05673e-05 -4.44116e-06 5.89115e-27)
(-1.07484e-05 -4.64283e-06 5.4363e-27)
(-1.09246e-05 -4.84566e-06 2.26105e-27)
(-1.10956e-05 -5.04969e-06 -1.38241e-27)
(-1.12612e-05 -5.25496e-06 -3.37932e-27)
(-1.14212e-05 -5.46155e-06 -2.7191e-28)
(-1.15755e-05 -5.66953e-06 -2.4705e-27)
(-1.17237e-05 -5.87899e-06 -1.08406e-27)
(-1.18658e-05 -6.09004e-06 9.73447e-28)
(-1.20015e-05 -6.30275e-06 1.63542e-27)
(-1.21308e-05 -6.51724e-06 1.28076e-27)
(-1.22533e-05 -6.73358e-06 3.42941e-27)
(-1.23689e-05 -6.95187e-06 -9.86431e-28)
(-1.24776e-05 -7.1722e-06 -6.04239e-27)
(-1.2579e-05 -7.39463e-06 4.12117e-27)
(-1.26731e-05 -7.61927e-06 5.65805e-27)
(-1.27596e-05 -7.84618e-06 -5.18305e-27)
(-1.28384e-05 -8.07547e-06 -1.3639e-27)
(-1.29093e-05 -8.30722e-06 1.11084e-26)
(-1.29723e-05 -8.54152e-06 8.3094e-27)
(-1.30271e-05 -8.77846e-06 1.31596e-27)
(-1.30737e-05 -9.01807e-06 -3.62957e-27)
(-1.3112e-05 -9.26031e-06 -2.67401e-27)
(-1.31422e-05 -9.50499e-06 3.11604e-27)
(-1.31645e-05 -9.75159e-06 1.41121e-27)
(-1.31795e-05 -9.99887e-06 -4.05813e-27)
(-1.31882e-05 -1.02434e-05 4.84135e-27)
(-2.03169e-07 1.15389e-07 -4.80425e-27)
(-2.00887e-07 1.48477e-07 6.95995e-28)
(-2.04243e-07 2.06052e-07 4.60863e-27)
(-2.24568e-07 2.46158e-07 -4.90773e-28)
(-2.62565e-07 2.71417e-07 -1.87119e-27)
(-3.16266e-07 2.86085e-07 4.44802e-27)
(-3.8329e-07 2.92992e-07 9.28508e-28)
(-4.62127e-07 2.9458e-07 -2.222e-27)
(-5.51737e-07 2.92641e-07 -4.60621e-28)
(-6.51536e-07 2.88591e-07 2.31737e-27)
(-7.61215e-07 2.83491e-07 -3.12256e-27)
(-8.80676e-07 2.78131e-07 -6.56568e-27)
(-1.00997e-06 2.73056e-07 2.83783e-27)
(-1.14926e-06 2.68586e-07 3.63391e-27)
(-1.29882e-06 2.6483e-07 1.28828e-27)
(-1.45899e-06 2.61685e-07 -9.01862e-28)
(-1.63018e-06 2.58833e-07 -1.27126e-27)
(-1.81283e-06 2.55736e-07 -1.17646e-27)
(-2.00742e-06 2.51621e-07 -3.94583e-27)
(-2.21442e-06 2.45478e-07 1.93266e-27)
(-2.43428e-06 2.36049e-07 7.11157e-27)
(-2.66743e-06 2.2184e-07 3.85833e-28)
(-2.78792e-07 -1.476e-07 -2.66623e-27)
(-2.74926e-06 -5.73896e-07 -6.4508e-27)
(-2.49934e-06 -5.63575e-07 -3.55493e-28)
(-2.26677e-06 -5.56053e-07 2.49802e-27)
(-2.05077e-06 -5.50324e-07 -1.06166e-27)
(-1.85047e-06 -5.45635e-07 1.89232e-27)
(-1.66493e-06 -5.41425e-07 4.0863e-27)
(-1.49319e-06 -5.37281e-07 8.15627e-28)
(-1.33427e-06 -5.32895e-07 -1.63339e-27)
(-1.1873e-06 -5.28017e-07 -1.34238e-27)
(-1.05146e-06 -5.22416e-07 -7.47597e-29)
(-9.26066e-07 -5.15831e-07 -3.93703e-28)
(-8.10576e-07 -5.07928e-07 -5.65176e-28)
(-7.0464e-07 -4.98246e-07 -2.43661e-28)
(-6.08129e-07 -4.86136e-07 1.31544e-27)
(-5.21223e-07 -4.70692e-07 -9.38995e-28)
(-4.44489e-07 -4.50629e-07 -5.04576e-28)
(-3.79098e-07 -4.24217e-07 1.09067e-27)
(-3.26871e-07 -3.88944e-07 -3.0346e-28)
(-2.90735e-07 -3.41762e-07 -1.09128e-28)
(-2.73295e-07 -2.77904e-07 5.20322e-28)
(-2.74109e-07 -1.94295e-07 -4.19363e-28)
)


// ************************************************************************* //
