/*--------------------------------*- C++ -*----------------------------------*\
| =========                 |                                                 |
| \\      /  F ield         | OpenFOAM Extend Project: Open source CFD        |
|  \\    /   O peration     | Version:  1.6-ext                               |
|   \\  /    A nd           | Web:      www.extend-project.de                 |
|    \\/     M anipulation  |                                                 |
\*---------------------------------------------------------------------------*/
FoamFile
{
    version     2.0;
    format      ascii;
    class       tetPointVectorField;
    location    "0.2";
    object      motionU;
}
// * * * * * * * * * * * * * * * * * * * * * * * * * * * * * * * * * * * * * //

dimensions      [0 1 -1 0 0 0 0];

internalField   nonuniform List<vector> 
147960
(
(0 0 0)
(0.000166964 1.11524e-05 0)
(-0.00586709 0.00123514 -1.3535e-24)
(-0.00588862 -0.000370778 4.15363e-25)
(-0.0258721 -0.00777487 3.2871e-24)
(-0.0259092 -0.00763943 -2.54745e-24)
(-0.0258863 -0.00745951 5.81431e-25)
(-0.025852 -0.00728022 2.0257e-24)
(-0.0258059 -0.00710018 -3.43322e-24)
(-0.0257474 -0.00691953 -4.41276e-24)
(-0.0256767 -0.0067384 1.08977e-25)
(-0.0255937 -0.00655698 -1.13224e-24)
(-0.0254986 -0.00637543 -6.92092e-25)
(-0.0253914 -0.00619388 -1.54534e-24)
(-0.0252721 -0.00601248 -6.58916e-24)
(-0.0251407 -0.00583135 -1.08106e-24)
(-0.0249974 -0.00565062 -1.02958e-24)
(-0.0248422 -0.0054704 -4.31393e-24)
(-0.024675 -0.00529084 -1.3368e-24)
(-0.024496 -0.00511207 -2.6143e-24)
(-0.0243051 -0.00493424 -2.0458e-24)
(-0.0241025 -0.0047575 -2.31639e-24)
(-0.0238881 -0.00458203 3.23089e-26)
(-0.023662 -0.004408 2.98474e-24)
(-0.0234243 -0.00423558 3.85017e-25)
(-0.023175 -0.00406497 -5.25028e-24)
(-0.0229142 -0.00389634 -5.08045e-24)
(-0.022642 -0.00372988 2.27886e-24)
(-0.0223584 -0.00356577 2.21464e-24)
(-0.0220637 -0.00340418 -1.62947e-24)
(-0.0217578 -0.0032453 -6.67216e-25)
(-0.021441 -0.00308926 -2.01543e-24)
(-0.0211133 -0.00293623 -2.56749e-24)
(-0.0207749 -0.00278635 -1.13284e-24)
(-0.0204258 -0.00263977 3.27362e-24)
(-0.0200664 -0.0024966 3.11423e-24)
(-0.0196966 -0.002357 -1.4165e-24)
(-0.0193166 -0.00222108 -2.51583e-24)
(-0.0189267 -0.00208898 -1.28356e-24)
(-0.0185269 -0.00196082 -3.93221e-25)
(-0.0181174 -0.00183675 -1.55648e-24)
(-0.0176985 -0.00171691 1.63052e-24)
(-0.0172702 -0.00160141 5.27516e-25)
(-0.0168328 -0.00149041 3.08723e-24)
(-0.0163865 -0.00138404 -9.99092e-26)
(-0.0159315 -0.00128244 -3.32605e-24)
(-0.0154679 -0.00118573 2.82512e-24)
(-0.014996 -0.00109405 -1.28048e-24)
(-0.014516 -0.0010075 2.59909e-25)
(-0.0140281 -0.000926211 2.2166e-24)
(-0.0135324 -0.00085028 3.63841e-25)
(-0.0130292 -0.000779803 1.99937e-24)
(-0.0125187 -0.000714863 -1.83768e-24)
(-0.012001 -0.000655534 -1.92313e-24)
(-0.0114763 -0.000601872 6.56181e-25)
(-0.0109446 -0.000553919 2.61896e-24)
(-0.0104062 -0.000511694 -1.52797e-24)
(-0.00986112 -0.000475186 -3.60182e-24)
(-0.00930947 -0.000444352 9.10091e-25)
(-0.00875137 -0.000419107 -2.12911e-26)
(-0.00818692 -0.000399318 -9.20339e-26)
(-0.00761628 -0.000384808 1.10467e-24)
(-0.00703963 -0.000375362 -5.48444e-25)
(-0.00645721 -0.000370769 2.89486e-24)
(-0.0255422 -0.00780478 3.3234e-24)
(-0.0257327 -0.00781446 9.37499e-24)
(-0.025194 -0.00773574 -2.69769e-23)
(-0.0253456 -0.0077946 -2.15264e-23)
(-0.00641396 0.00122084 -1.24203e-24)
(-0.0069743 0.00119965 -1.00061e-24)
(-0.00752904 0.00117226 -3.60784e-24)
(-0.0080778 0.00113892 -7.08393e-25)
(-0.00862029 0.00109978 2.8951e-24)
(-0.00915634 0.00105493 -3.88325e-24)
(-0.0096858 0.00100442 1.19104e-24)
(-0.0102086 0.000948238 9.53116e-24)
(-0.0107246 0.000886369 2.18947e-24)
(-0.0112339 0.000818781 -2.35613e-25)
(-0.0117363 0.000745445 -1.06534e-24)
(-0.0122317 0.00066634 -1.04912e-24)
(-0.01272 0.000581459 1.83224e-24)
(-0.0132012 0.000490809 -4.74008e-25)
(-0.0136751 0.000394417 -2.64857e-24)
(-0.0141416 0.000292326 3.26237e-24)
(-0.0146005 0.000184597 1.93598e-24)
(-0.0150517 7.13077e-05 -1.67975e-24)
(-0.0154949 -4.74492e-05 -3.08298e-24)
(-0.0159301 -0.000171567 -3.4213e-24)
(-0.0163571 -0.000300929 2.00385e-24)
(-0.0167756 -0.000435406 2.93347e-24)
(-0.0171855 -0.000574865 2.30873e-24)
(-0.0175867 -0.000719166 2.01229e-25)
(-0.0179789 -0.000868164 2.75289e-24)
(-0.0183619 -0.00102171 3.28807e-24)
(-0.0187357 -0.00117967 -2.64733e-24)
(-0.0191 -0.00134189 -3.83636e-24)
(-0.0194548 -0.00150822 -2.24352e-24)
(-0.0197998 -0.00167852 1.14891e-24)
(-0.0201349 -0.00185263 -1.8609e-24)
(-0.02046 -0.00203041 2.98254e-24)
(-0.0207749 -0.00221169 3.67273e-24)
(-0.0210797 -0.00239631 -3.28649e-24)
(-0.0213741 -0.00258411 3.17031e-24)
(-0.021658 -0.00277489 3.44544e-24)
(-0.0219315 -0.00296849 1.69354e-24)
(-0.0221944 -0.0031647 -5.30354e-25)
(-0.0224465 -0.00336333 -2.63567e-24)
(-0.0226879 -0.00356419 2.9142e-24)
(-0.0229185 -0.00376706 1.34055e-24)
(-0.0231381 -0.00397176 1.19852e-24)
(-0.0233467 -0.0041781 -3.87876e-25)
(-0.0235443 -0.00438589 -2.37928e-24)
(-0.0237306 -0.00459496 -4.28561e-24)
(-0.0239058 -0.00480514 -2.32308e-24)
(-0.0240696 -0.00501628 5.61503e-24)
(-0.0242221 -0.00522824 3.74797e-24)
(-0.0243632 -0.00544088 1.58976e-24)
(-0.0244927 -0.00565409 4.48356e-24)
(-0.0246107 -0.00586774 5.40866e-24)
(-0.0247171 -0.00608172 -1.23155e-24)
(-0.0248119 -0.00629593 -2.18715e-24)
(-0.0248949 -0.00651025 2.218e-24)
(-0.0249661 -0.00672458 -1.2311e-25)
(-0.0250254 -0.00693885 -5.53196e-24)
(-0.0250728 -0.00715288 8.90869e-25)
(-0.0251087 -0.00736651 6.31758e-24)
(-0.0251331 -0.00757798 -4.95224e-24)
(-0.0209062 -0.00857175 0)
(-0.0251656 -0.00763938 0)
(-0.0251304 -0.00758061 0)
(-0.0250669 -0.00755168 0)
(-0.0249662 -0.00753063 0)
(-0.0248335 -0.00753077 0)
(-0.0246707 -0.00754763 0)
(-0.0244572 -0.00758751 0)
(-0.0242131 -0.00763509 0)
(-0.0239168 -0.007719 0)
(-0.0235641 -0.00780305 0)
(-0.0231791 -0.0079074 0)
(-0.0227039 -0.00806056 0)
(-0.0221833 -0.00818601 0)
(-0.021607 -0.00835291 0)
(-0.00396704 0.000551233 0)
(-0.00440913 0.000569645 0)
(-0.00486802 0.000579991 0)
(-0.00533997 0.000581886 0)
(-0.00582366 0.00057531 0)
(-0.00631768 0.000560437 0)
(-0.00681758 0.000537213 0)
(-0.00732101 0.000505741 0)
(-0.00782647 0.000466129 0)
(-0.00833331 0.000418606 0)
(-0.00884101 0.000363461 0)
(-0.00934877 0.000300905 0)
(-0.00985544 0.000231009 0)
(-0.0103596 0.000153764 0)
(-0.0108595 6.92213e-05 0)
(-0.0113542 -2.24419e-05 0)
(-0.0118435 -0.000120956 0)
(-0.012328 -0.000226093 0)
(-0.0128071 -0.000337858 0)
(-0.0132793 -0.000456088 0)
(-0.0137449 -0.000581123 0)
(-0.014203 -0.000712772 0)
(-0.0146521 -0.000849969 0)
(-0.0150909 -0.000992689 0)
(-0.0155189 -0.00114078 0)
(-0.015936 -0.0012941 0)
(-0.016342 -0.0014525 0)
(-0.0167372 -0.0016159 0)
(-0.0171222 -0.00178427 0)
(-0.017497 -0.00195757 0)
(-0.0178611 -0.00213556 0)
(-0.0182138 -0.00231771 0)
(-0.0185556 -0.00250335 0)
(-0.0188869 -0.00269216 0)
(-0.0192067 -0.00288411 0)
(-0.0195141 -0.00307855 0)
(-0.019809 -0.00327586 0)
(-0.0200909 -0.00347559 0)
(-0.020357 -0.0036756 0)
(-0.0206026 -0.00387551 0)
(-0.0208247 -0.00407498 0)
(-0.0210234 -0.00427452 0)
(-0.0212032 -0.00447601 0)
(-0.0213702 -0.00468268 0)
(-0.0215247 -0.00489801 0)
(-0.0216585 -0.00512323 0)
(-0.0217656 -0.00535491 0)
(-0.0218529 -0.0055858 0)
(-0.0219312 -0.00581127 0)
(-0.0219969 -0.00603504 0)
(-0.0220356 -0.00626579 0)
(-0.0220399 -0.006507 0)
(-0.0220128 -0.00675295 0)
(-0.0219675 -0.00699518 0)
(-0.0219095 -0.0072284 0)
(-0.021832 -0.0074532 0)
(-0.0217268 -0.00767417 0)
(-0.0215822 -0.00789561 0)
(-0.0213968 -0.00811991 0)
(-0.0211691 -0.00834992 0)
(-0.021494 -0.00858277 0)
(-0.0221866 -0.00838725 0)
(-0.0227773 -0.00822152 0)
(-0.0232674 -0.0081225 0)
(-0.0237578 -0.00799338 0)
(-0.0241696 -0.00787273 0)
(-0.0245041 -0.00780622 0)
(-0.0248288 -0.00773058 0)
(-0.0250845 -0.00766722 0)
(-0.0252966 -0.00764011 0)
(-0.0254871 -0.00761246 0)
(-0.0256212 -0.00760652 0)
(-0.025735 -0.00762212 0)
(-0.0258136 -0.00764433 0)
(-0.0258663 -0.00769276 0)
(-0.0040362 -0.00032315 0)
(-0.00581854 -0.000374113 0)
(-0.00573696 -0.000380195 0)
(-0.00564009 -0.00038721 0)
(-0.00553197 -0.000394331 0)
(-0.00541812 -0.00039979 0)
(-0.00529931 -0.000403204 0)
(-0.00517715 -0.000404414 0)
(-0.00504968 -0.000402927 0)
(-0.00492144 -0.000399752 0)
(-0.00479229 -0.000394337 0)
(-0.00465389 -0.00038581 0)
(-0.00451072 -0.000374904 0)
(-0.00436189 -0.000360516 0)
(-0.00420491 -0.000343047 0)
(-0.021776 -0.00837289 0)
(-0.0220133 -0.00816565 0)
(-0.0222064 -0.0079629 0)
(-0.0223617 -0.00776226 0)
(-0.0224807 -0.00756222 0)
(-0.0225693 -0.00735992 0)
(-0.0226331 -0.00715074 0)
(-0.0226791 -0.00693358 0)
(-0.0227048 -0.00671296 0)
(-0.0227011 -0.00649684 0)
(-0.0226656 -0.00629116 0)
(-0.0226023 -0.0060931 0)
(-0.0225228 -0.00589431 0)
(-0.0224316 -0.00569068 0)
(-0.0223208 -0.00548613 0)
(-0.0221839 -0.00528746 0)
(-0.0220255 -0.00509815 0)
(-0.0218528 -0.00491724 0)
(-0.0216663 -0.00474151 0)
(-0.0214612 -0.00456779 0)
(-0.0212337 -0.00439414 0)
(-0.0209832 -0.00421997 0)
(-0.0207121 -0.00404555 0)
(-0.0204247 -0.0038713 0)
(-0.0201233 -0.00369904 0)
(-0.0198087 -0.00352922 0)
(-0.0194808 -0.00336161 0)
(-0.0191406 -0.00319686 0)
(-0.0187891 -0.00303504 0)
(-0.0184259 -0.00287646 0)
(-0.0180508 -0.00272169 0)
(-0.0176643 -0.0025712 0)
(-0.017267 -0.00242522 0)
(-0.0168588 -0.0022838 0)
(-0.0164392 -0.00214699 0)
(-0.016008 -0.00201489 0)
(-0.0155652 -0.00188761 0)
(-0.015111 -0.00176525 0)
(-0.014646 -0.00164788 0)
(-0.0141713 -0.00153543 0)
(-0.0136889 -0.00142848 0)
(-0.0131992 -0.00132708 0)
(-0.0127022 -0.00123099 0)
(-0.0121994 -0.00114041 0)
(-0.0116916 -0.00105533 0)
(-0.0111783 -0.000975717 0)
(-0.0106592 -0.000901418 0)
(-0.0101355 -0.000832305 0)
(-0.00960906 -0.00076831 0)
(-0.00908163 -0.000709374 0)
(-0.0085546 -0.000655341 0)
(-0.00802881 -0.000605896 0)
(-0.00750476 -0.000560609 0)
(-0.00698302 -0.000519042 0)
(-0.00646494 -0.000480816 0)
(-0.0059531 -0.00044555 0)
(-0.00545246 -0.000412844 0)
(-0.00496445 -0.000381969 0)
(-0.00449044 -0.000352241 0)
(-0.00467358 -0.000369546 0)
(-0.00485273 -0.000385543 0)
(-0.00501325 -0.000397265 0)
(-0.00516887 -0.000404914 0)
(-0.00532461 -0.000411247 0)
(-0.00546388 -0.000413589 0)
(-0.00560669 -0.000413299 0)
(-0.00574462 -0.000412034 0)
(-0.00587271 -0.000407437 0)
(-0.00600174 -0.000401738 0)
(-0.00611877 -0.000394626 0)
(-0.00622957 -0.000386615 0)
(-0.00632591 -0.000379452 0)
(-0.00640452 -0.000373727 0)
(-0.00516428 -0.000397265 0)
(-0.00535803 -0.00041111 0)
(-0.00552849 -0.000419521 0)
(-0.00569925 -0.000424875 0)
(-0.00586562 -0.000428738 0)
(-0.00601512 -0.000428075 0)
(-0.00616958 -0.00042563 0)
(-0.00631379 -0.000421648 0)
(-0.0064498 -0.000414794 0)
(-0.00658366 -0.000407548 0)
(-0.00670286 -0.000399183 0)
(-0.00681437 -0.000390727 0)
(-0.00690935 -0.000383549 0)
(-0.00698529 -0.000378016 0)
(-0.00566837 -0.000426292 0)
(-0.00587372 -0.000437649 0)
(-0.00605457 -0.000443026 0)
(-0.0062395 -0.000446335 0)
(-0.0064124 -0.000447776 0)
(-0.0065708 -0.000444572 0)
(-0.00673563 -0.000440326 0)
(-0.00688326 -0.000434342 0)
(-0.00702494 -0.000425796 0)
(-0.00716235 -0.000417514 0)
(-0.00728203 -0.000408349 0)
(-0.0073939 -0.000399617 0)
(-0.00748757 -0.000392503 0)
(-0.00756244 -0.000387196 0)
(-0.00618479 -0.000457285 0)
(-0.00639888 -0.00046606 0)
(-0.00658906 -0.000468632 0)
(-0.00678602 -0.000470063 0)
(-0.0069657 -0.000469334 0)
(-0.00713019 -0.000463879 0)
(-0.0073018 -0.000458188 0)
(-0.00745228 -0.000450684 0)
(-0.00759679 -0.000440893 0)
(-0.00773677 -0.000431945 0)
(-0.00785618 -0.000422349 0)
(-0.0079678 -0.000413469 0)
(-0.00806056 -0.00040649 0)
(-0.00813419 -0.000401435 0)
(-0.00670987 -0.000490804 0)
(-0.00693113 -0.000497085 0)
(-0.00712864 -0.000496977 0)
(-0.00733653 -0.000496648 0)
(-0.00752074 -0.000494062 0)
(-0.00768948 -0.000486647 0)
(-0.00786723 -0.000479726 0)
(-0.008019 -0.000471239 0)
(-0.00816482 -0.000460515 0)
(-0.00830625 -0.000451088 0)
(-0.00842523 -0.000441329 0)
(-0.008536 -0.000432487 0)
(-0.00862754 -0.000425689 0)
(-0.0086999 -0.000420919 0)
(-0.00724092 -0.000527351 0)
(-0.0074682 -0.000531289 0)
(-0.00767084 -0.000528611 0)
(-0.00788841 -0.000526614 0)
(-0.00807718 -0.000522523 0)
(-0.00824752 -0.000513501 0)
(-0.00842982 -0.000505493 0)
(-0.0085832 -0.000496294 0)
(-0.0087286 -0.000485024 0)
(-0.00887014 -0.000475248 0)
(-0.00898839 -0.000465443 0)
(-0.00909839 -0.000456799 0)
(-0.00918837 -0.000450288 0)
(-0.00925922 -0.000445846 0)
(-0.00777528 -0.000567276 0)
(-0.00800851 -0.000569134 0)
(-0.00821431 -0.000564056 0)
(-0.00843968 -0.000560439 0)
(-0.00863278 -0.00055516 0)
(-0.00880411 -0.000544886 0)
(-0.00898847 -0.00053591 0)
(-0.00914283 -0.000526161 0)
(-0.00928819 -0.000514589 0)
(-0.0094281 -0.000504658 0)
(-0.00954514 -0.000494874 0)
(-0.00965447 -0.000486539 0)
(-0.00974294 -0.000480394 0)
(-0.00981218 -0.000476341 0)
(-0.00831107 -0.000610907 0)
(-0.00855055 -0.000611004 0)
(-0.00875785 -0.000603827 0)
(-0.00898813 -0.000598557 0)
(-0.00918549 -0.000592209 0)
(-0.00935772 -0.000581119 0)
(-0.00954315 -0.000571324 0)
(-0.00969727 -0.000561079 0)
(-0.00984268 -0.000549387 0)
(-0.00998279 -0.000539562 0)
(-0.0100973 -0.000529901 0)
(-0.0102043 -0.000521858 0)
(-0.0102909 -0.000516111 0)
(-0.0103586 -0.00051249 0)
(-0.00884649 -0.000658603 0)
(-0.00909246 -0.000657186 0)
(-0.00930085 -0.000648314 0)
(-0.00953498 -0.000641558 0)
(-0.00973534 -0.000634084 0)
(-0.00990765 -0.000622313 0)
(-0.0100935 -0.000611955 0)
(-0.0102466 -0.000601298 0)
(-0.0103912 -0.000589538 0)
(-0.0105306 -0.000579857 0)
(-0.0106429 -0.000570489 0)
(-0.0107477 -0.000562836 0)
(-0.0108322 -0.00055752 0)
(-0.0108983 -0.000554351 0)
(-0.00938022 -0.000710734 0)
(-0.00963199 -0.000707875 0)
(-0.00984197 -0.000697669 0)
(-0.0100781 -0.000689527 0)
(-0.0102794 -0.00068093 0)
(-0.0104522 -0.000668567 0)
(-0.0106391 -0.000657845 0)
(-0.0107907 -0.000646961 0)
(-0.0109335 -0.000635204 0)
(-0.0110714 -0.000625687 0)
(-0.0111815 -0.000616678 0)
(-0.0112843 -0.000609482 0)
(-0.0113669 -0.000604639 0)
(-0.0114312 -0.000601939 0)
(-0.00991184 -0.00076765 0)
(-0.0101673 -0.000763242 0)
(-0.0103789 -0.000751929 0)
(-0.0106172 -0.000742631 0)
(-0.0108182 -0.000732998 0)
(-0.0109905 -0.000720079 0)
(-0.0111784 -0.000709048 0)
(-0.0113285 -0.000698067 0)
(-0.0114693 -0.000686451 0)
(-0.0116053 -0.000677143 0)
(-0.0117129 -0.000668516 0)
(-0.0118139 -0.000661805 0)
(-0.0118945 -0.000657459 0)
(-0.0119571 -0.000655243 0)
(-0.0104412 -0.000829631 0)
(-0.0106981 -0.000823534 0)
(-0.0109099 -0.000811153 0)
(-0.0111513 -0.000800859 0)
(-0.0113522 -0.000790434 0)
(-0.0115227 -0.000777031 0)
(-0.0117105 -0.000765681 0)
(-0.0118591 -0.000754632 0)
(-0.011998 -0.000743252 0)
(-0.0121322 -0.000734214 0)
(-0.0122372 -0.000726003 0)
(-0.0123363 -0.000719794 0)
(-0.0124151 -0.000715952 0)
(-0.0124761 -0.000714225 0)
(-0.0109681 -0.000896846 0)
(-0.0112251 -0.000889055 0)
(-0.0114371 -0.000875765 0)
(-0.0116808 -0.000864485 0)
(-0.0118805 -0.000853237 0)
(-0.0120489 -0.000839466 0)
(-0.0122357 -0.000827825 0)
(-0.0123821 -0.000816713 0)
(-0.0125191 -0.000805602 0)
(-0.0126517 -0.000796856 0)
(-0.0127543 -0.000789096 0)
(-0.0128515 -0.000783409 0)
(-0.0129284 -0.000780073 0)
(-0.0129878 -0.000778832 0)
(-0.0114912 -0.000969332 0)
(-0.0117482 -0.000959893 0)
(-0.0119586 -0.000945582 0)
(-0.0122033 -0.000933343 0)
(-0.0124022 -0.00092134 0)
(-0.0125685 -0.000907322 0)
(-0.0127542 -0.00089546 0)
(-0.012898 -0.000884317 0)
(-0.0130327 -0.000873502 0)
(-0.0131637 -0.000865047 0)
(-0.013264 -0.000857754 0)
(-0.0133594 -0.000852598 0)
(-0.0134344 -0.000849759 0)
(-0.0134922 -0.000848994 0)
(-0.0120082 -0.00104709 0)
(-0.012265 -0.00103599 0)
(-0.0124741 -0.00102068 0)
(-0.0127196 -0.00100759 0)
(-0.0129172 -0.000994802 0)
(-0.0130811 -0.000980585 0)
(-0.0132654 -0.00096853 0)
(-0.0134064 -0.000957383 0)
(-0.0135388 -0.000946898 0)
(-0.013668 -0.000938735 0)
(-0.0137661 -0.00093192 0)
(-0.0138596 -0.000927294 0)
(-0.0139327 -0.000924932 0)
(-0.013989 -0.000924629 0)
(-0.012519 -0.0011302 0)
(-0.0127768 -0.00111764 0)
(-0.0129847 -0.00110141 0)
(-0.0132295 -0.00108729 0)
(-0.0134252 -0.00107368 0)
(-0.0135863 -0.00105928 0)
(-0.013769 -0.00104702 0)
(-0.013907 -0.00103585 0)
(-0.0140369 -0.0010257 0)
(-0.0141644 -0.00101782 0)
(-0.0142603 -0.0010115 0)
(-0.0143519 -0.0010074 0)
(-0.0144232 -0.0010055 0)
(-0.0144781 -0.00100564 0)
(-0.0130239 -0.00121868 0)
(-0.0132815 -0.00120442 0)
(-0.0134876 -0.00118744 0)
(-0.0137323 -0.00117236 0)
(-0.0139259 -0.00115791 0)
(-0.014084 -0.00114338 0)
(-0.0142649 -0.00113089 0)
(-0.0143998 -0.00111967 0)
(-0.0145266 -0.00110979 0)
(-0.0146526 -0.00110216 0)
(-0.0147464 -0.00109641 0)
(-0.0148362 -0.00109282 0)
(-0.0149058 -0.00109135 0)
(-0.0149592 -0.00109193 0)
(-0.013522 -0.00131245 0)
(-0.0137792 -0.00129634 0)
(-0.0139832 -0.00127879 0)
(-0.0142273 -0.00126274 0)
(-0.0144186 -0.00124743 0)
(-0.0145737 -0.0012328 0)
(-0.0147529 -0.00122007 0)
(-0.0148849 -0.00120884 0)
(-0.0150099 -0.00119949 0)
(-0.0151338 -0.00119199 0)
(-0.0152244 -0.00118658 0)
(-0.0153123 -0.00118345 0)
(-0.0153803 -0.00118238 0)
(-0.0154323 -0.00118338 0)
(-0.0140144 -0.00141183 0)
(-0.0142711 -0.00139377 0)
(-0.0144717 -0.00137547 0)
(-0.0147146 -0.00135837 0)
(-0.0149032 -0.00134214 0)
(-0.0150552 -0.00132745 0)
(-0.0152326 -0.00131447 0)
(-0.0153618 -0.00130319 0)
(-0.0154843 -0.00129424 0)
(-0.015606 -0.00128692 0)
(-0.015694 -0.00128187 0)
(-0.01578 -0.00127917 0)
(-0.0158464 -0.00127848 0)
(-0.015897 -0.00127988 0)
(-0.0144994 -0.00151615 0)
(-0.0147553 -0.00149631 0)
(-0.0149526 -0.00147737 0)
(-0.015194 -0.00145917 0)
(-0.0153796 -0.00144198 0)
(-0.0155282 -0.00142724 0)
(-0.0157037 -0.00141397 0)
(-0.0158299 -0.00140259 0)
(-0.0159499 -0.001394 0)
(-0.0160694 -0.00138684 0)
(-0.0161549 -0.00138216 0)
(-0.0162392 -0.00137987 0)
(-0.0163039 -0.00137952 0)
(-0.0163531 -0.00138129 0)
(-0.0149772 -0.00162584 0)
(-0.0152312 -0.00160391 0)
(-0.0154251 -0.00158437 0)
(-0.015665 -0.00156503 0)
(-0.0158475 -0.00154681 0)
(-0.0159925 -0.00153203 0)
(-0.016166 -0.00151841 0)
(-0.0162892 -0.00150689 0)
(-0.0164064 -0.00149867 0)
(-0.0165238 -0.00149164 0)
(-0.016607 -0.0014873 0)
(-0.0166896 -0.00148541 0)
(-0.0167527 -0.00148537 0)
(-0.0168005 -0.0014875 0)
(-0.0154448 -0.00174043 0)
(-0.0156976 -0.00171642 0)
(-0.0158886 -0.00169634 0)
(-0.0161272 -0.00167579 0)
(-0.0163067 -0.00165648 0)
(-0.0164482 -0.00164167 0)
(-0.0166196 -0.00162767 0)
(-0.0167395 -0.00161596 0)
(-0.016854 -0.00160809 0)
(-0.0169693 -0.00160116 0)
(-0.0170501 -0.00159716 0)
(-0.0171311 -0.00159565 0)
(-0.0171925 -0.00159589 0)
(-0.0172389 -0.00159837 0)
(-0.0159016 -0.00185989 0)
(-0.0161539 -0.00183374 0)
(-0.0163425 -0.00181315 0)
(-0.0165803 -0.00179135 0)
(-0.0167569 -0.00177088 0)
(-0.016895 -0.00175608 0)
(-0.0170641 -0.00174165 0)
(-0.0171806 -0.00172968 0)
(-0.0172924 -0.00172215 0)
(-0.0174056 -0.00171531 0)
(-0.0174842 -0.00171162 0)
(-0.0175635 -0.00171045 0)
(-0.0176233 -0.00171095 0)
(-0.0176682 -0.00171375 0)
(-0.0163471 -0.00198409 0)
(-0.0165993 -0.00195573 0)
(-0.0167861 -0.0019347 0)
(-0.0170233 -0.0019116 0)
(-0.0171974 -0.00188993 0)
(-0.0173323 -0.00187515 0)
(-0.0174993 -0.00186023 0)
(-0.017612 -0.00184787 0)
(-0.0177214 -0.00184067 0)
(-0.0178329 -0.00183397 0)
(-0.0179091 -0.00183057 0)
(-0.0179867 -0.0018297 0)
(-0.0180447 -0.00183041 0)
(-0.0180882 -0.00183351 0)
(-0.0167809 -0.00211292 0)
(-0.0170329 -0.00208224 0)
(-0.0172181 -0.00206084 0)
(-0.0174552 -0.00203637 0)
(-0.0176274 -0.00201345 0)
(-0.0177596 -0.00199873 0)
(-0.0179249 -0.00198333 0)
(-0.0180354 -0.00197088 0)
(-0.0181421 -0.00196391 0)
(-0.0182509 -0.00195704 0)
(-0.0183246 -0.00195386 0)
(-0.0184003 -0.00195327 0)
(-0.0184566 -0.00195414 0)
(-0.0184987 -0.00195752 0)
(-0.0172028 -0.00224622 0)
(-0.0174547 -0.00221311 0)
(-0.0176384 -0.00219136 0)
(-0.0178757 -0.00216548 0)
(-0.0180463 -0.00214123 0)
(-0.0181762 -0.0021266 0)
(-0.0183403 -0.0021107 0)
(-0.0184484 -0.00209795 0)
(-0.0185527 -0.00209131 0)
(-0.0186592 -0.00208431 0)
(-0.0187304 -0.00208133 0)
(-0.0188041 -0.002081 0)
(-0.0188588 -0.00208201 0)
(-0.0188996 -0.00208563 0)
(-0.0176135 -0.00238389 0)
(-0.0178651 -0.00234821 0)
(-0.0180473 -0.00232613 0)
(-0.0182848 -0.00229874 0)
(-0.0184539 -0.00227312 0)
(-0.0185818 -0.00225862 0)
(-0.0187448 -0.00224213 0)
(-0.0188507 -0.00222901 0)
(-0.0189529 -0.00222278 0)
(-0.0190574 -0.00221566 0)
(-0.0191262 -0.00221285 0)
(-0.0191981 -0.00221274 0)
(-0.0192511 -0.00221387 0)
(-0.0192905 -0.00221773 0)
(-0.0180136 -0.0025259 0)
(-0.0182651 -0.0024875 0)
(-0.0184458 -0.00246508 0)
(-0.0186832 -0.00243609 0)
(-0.0188506 -0.00240902 0)
(-0.0189765 -0.00239464 0)
(-0.0191381 -0.00237739 0)
(-0.0192423 -0.00236386 0)
(-0.0193428 -0.00235819 0)
(-0.0194453 -0.00235095 0)
(-0.0195117 -0.00234829 0)
(-0.019582 -0.00234837 0)
(-0.0196333 -0.00234958 0)
(-0.0196714 -0.00235366 0)
(-0.0184032 -0.00267225 0)
(-0.0186549 -0.002631 0)
(-0.0188341 -0.0026082 0)
(-0.0190713 -0.00257746 0)
(-0.019237 -0.00254882 0)
(-0.0193607 -0.00253462 0)
(-0.0195219 -0.00251696 0)
(-0.0196241 -0.00250288 0)
(-0.0197222 -0.00249746 0)
(-0.0198227 -0.00249003 0)
(-0.0198869 -0.00248751 0)
(-0.0199555 -0.00248776 0)
(-0.0200054 -0.00248902 0)
(-0.0200422 -0.0024933 0)
(-0.0187813 -0.00282276 0)
(-0.0190336 -0.00277856 0)
(-0.0192118 -0.00275536 0)
(-0.0194489 -0.00272273 0)
(-0.0196127 -0.0026924 0)
(-0.0197341 -0.00267834 0)
(-0.0198943 -0.00265998 0)
(-0.0199944 -0.00264547 0)
(-0.0200907 -0.0026404 0)
(-0.0201895 -0.00263274 0)
(-0.0202516 -0.00263035 0)
(-0.0203186 -0.00263076 0)
(-0.020367 -0.00263205 0)
(-0.0204026 -0.00263651 0)
(-0.0191474 -0.00297695 0)
(-0.0194004 -0.00292976 0)
(-0.0195779 -0.00290624 0)
(-0.0198153 -0.00287165 0)
(-0.0199774 -0.00283954 0)
(-0.0200961 -0.00282548 0)
(-0.0202557 -0.00280631 0)
(-0.0203538 -0.00279155 0)
(-0.0204482 -0.00278687 0)
(-0.0205456 -0.00277895 0)
(-0.0206056 -0.00277668 0)
(-0.0206711 -0.00277724 0)
(-0.0207181 -0.00277853 0)
(-0.0207525 -0.00278317 0)
(-0.0195019 -0.00313423 0)
(-0.0197553 -0.0030841 0)
(-0.019932 -0.00306046 0)
(-0.02017 -0.00302393 0)
(-0.0203308 -0.00299006 0)
(-0.0204481 -0.00297643 0)
(-0.0206069 -0.00295637 0)
(-0.0207023 -0.00294102 0)
(-0.0207948 -0.0029367 0)
(-0.0208907 -0.0029285 0)
(-0.0209489 -0.00292636 0)
(-0.021013 -0.00292706 0)
(-0.0210586 -0.00292833 0)
(-0.0210918 -0.00293314 0)
(-0.0198449 -0.00329431 0)
(-0.0200982 -0.00324128 0)
(-0.020274 -0.00321767 0)
(-0.0205126 -0.00317923 0)
(-0.0206722 -0.00314351 0)
(-0.0207883 -0.00313017 0)
(-0.0209463 -0.00310952 0)
(-0.0210395 -0.00309366 0)
(-0.0211303 -0.00308974 0)
(-0.0212248 -0.00308124 0)
(-0.0212812 -0.00307921 0)
(-0.021344 -0.00308005 0)
(-0.0213883 -0.00308131 0)
(-0.0214204 -0.00308628 0)
(-0.0201751 -0.00345709 0)
(-0.0204285 -0.0034011 0)
(-0.0206036 -0.00337761 0)
(-0.0208427 -0.00333726 0)
(-0.0210024 -0.00330005 0)
(-0.0211175 -0.00328721 0)
(-0.021274 -0.00326566 0)
(-0.0213651 -0.00324928 0)
(-0.0214542 -0.00324579 0)
(-0.0215475 -0.00323699 0)
(-0.0216024 -0.00323508 0)
(-0.021664 -0.00323608 0)
(-0.021707 -0.00323731 0)
(-0.0217381 -0.00324244 0)
(-0.0204921 -0.0036222 0)
(-0.0207458 -0.00356322 0)
(-0.0209203 -0.00353993 0)
(-0.0211614 -0.00349804 0)
(-0.0213208 -0.00345935 0)
(-0.021434 -0.00344688 0)
(-0.0215895 -0.00342453 0)
(-0.0216786 -0.00340769 0)
(-0.0217663 -0.00340468 0)
(-0.0218585 -0.00339558 0)
(-0.0219122 -0.00339382 0)
(-0.0219728 -0.00339498 0)
(-0.0220147 -0.00339618 0)
(-0.0220447 -0.00340146 0)
(-0.0207956 -0.00378897 0)
(-0.0210497 -0.00372705 0)
(-0.0212245 -0.0037047 0)
(-0.0214671 -0.00366115 0)
(-0.0216252 -0.0036208 0)
(-0.0217369 -0.00360892 0)
(-0.021892 -0.00358592 0)
(-0.0219798 -0.0035687 0)
(-0.0220664 -0.00356624 0)
(-0.022158 -0.00355688 0)
(-0.0222105 -0.00355528 0)
(-0.0222703 -0.00355659 0)
(-0.0223112 -0.00355775 0)
(-0.0223403 -0.00356319 0)
(-0.0210862 -0.00395827 0)
(-0.0213404 -0.00389344 0)
(-0.0215141 -0.00387141 0)
(-0.0217569 -0.003826 0)
(-0.0219145 -0.00378416 0)
(-0.0220259 -0.00377314 0)
(-0.0221815 -0.00374965 0)
(-0.0222687 -0.00373219 0)
(-0.0223548 -0.00373039 0)
(-0.0224458 -0.00372079 0)
(-0.0224973 -0.00371935 0)
(-0.0225564 -0.00372078 0)
(-0.0225965 -0.00372187 0)
(-0.0226246 -0.00372745 0)
(-0.021359 -0.00412784 0)
(-0.0216128 -0.00406034 0)
(-0.0217859 -0.00403916 0)
(-0.0220303 -0.0039923 0)
(-0.0221888 -0.00394935 0)
(-0.022301 -0.00393955 0)
(-0.0224582 -0.0039158 0)
(-0.0225456 -0.00389823 0)
(-0.0226316 -0.00389715 0)
(-0.0227222 -0.00388726 0)
(-0.0227728 -0.0038859 0)
(-0.0228312 -0.0038874 0)
(-0.0228703 -0.00388838 0)
(-0.0228975 -0.00389409 0)
(-0.0216111 -0.00429744 0)
(-0.0218655 -0.00422778 0)
(-0.0220398 -0.0042081 0)
(-0.0222878 -0.00416036 0)
(-0.0224488 -0.00411679 0)
(-0.0225631 -0.00410859 0)
(-0.0227225 -0.0040847 0)
(-0.0228105 -0.00406699 0)
(-0.0228966 -0.00406654 0)
(-0.022987 -0.00405623 0)
(-0.0230367 -0.00405485 0)
(-0.0230943 -0.00405631 0)
(-0.0231326 -0.00405711 0)
(-0.023159 -0.00406291 0)
(-0.0218418 -0.00446717 0)
(-0.0220993 -0.00439621 0)
(-0.0222776 -0.004379 0)
(-0.0225311 -0.00433109 0)
(-0.0226957 -0.00428731 0)
(-0.0228125 -0.00428084 0)
(-0.0229742 -0.00425666 0)
(-0.0230629 -0.00423857 0)
(-0.0231493 -0.00423848 0)
(-0.0232397 -0.00422751 0)
(-0.0232888 -0.00422596 0)
(-0.0233459 -0.00422731 0)
(-0.0233833 -0.00422787 0)
(-0.023409 -0.00423373 0)
(-0.0220535 -0.00463807 0)
(-0.0223177 -0.00456704 0)
(-0.022502 -0.00455334 0)
(-0.0227616 -0.00450574 0)
(-0.0229295 -0.00446172 0)
(-0.0230484 -0.0044566 0)
(-0.0232123 -0.00443155 0)
(-0.0233019 -0.00441255 0)
(-0.0233893 -0.0044125 0)
(-0.0234803 -0.00440069 0)
(-0.0235291 -0.00439891 0)
(-0.0235858 -0.00440013 0)
(-0.0236225 -0.00440044 0)
(-0.0236474 -0.00440636 0)
(-0.0222506 -0.00481252 0)
(-0.022523 -0.00474263 0)
(-0.0227131 -0.00473292 0)
(-0.0229775 -0.00468518 0)
(-0.0231481 -0.0046399 0)
(-0.0232694 -0.00463507 0)
(-0.0234364 -0.00460832 0)
(-0.023528 -0.00458802 0)
(-0.0236169 -0.00458795 0)
(-0.0237088 -0.00457536 0)
(-0.0237576 -0.00457343 0)
(-0.023814 -0.00457457 0)
(-0.02385 -0.00457464 0)
(-0.0238741 -0.00458063 0)
(-0.0224346 -0.00499349 0)
(-0.0227136 -0.00492493 0)
(-0.0229072 -0.00491809 0)
(-0.0231763 -0.00486826 0)
(-0.0233512 -0.00481995 0)
(-0.0234767 -0.00481445 0)
(-0.023648 -0.00478584 0)
(-0.0237418 -0.00476453 0)
(-0.0238323 -0.00476476 0)
(-0.023925 -0.00475155 0)
(-0.0239738 -0.0047495 0)
(-0.0240301 -0.00475052 0)
(-0.0240656 -0.00475033 0)
(-0.0240891 -0.00475635 0)
(-0.0226016 -0.00518255 0)
(-0.0228846 -0.00511316 0)
(-0.0230829 -0.00510616 0)
(-0.0233599 -0.00505182 0)
(-0.0235414 -0.00499971 0)
(-0.0236719 -0.00499414 0)
(-0.0238468 -0.00496459 0)
(-0.0239423 -0.00494278 0)
(-0.0240343 -0.00494335 0)
(-0.0241284 -0.00492932 0)
(-0.0241776 -0.00492698 0)
(-0.0242341 -0.0049278 0)
(-0.0242693 -0.00492729 0)
(-0.0242923 -0.00493335 0)
(-0.0227456 -0.00537772 0)
(-0.0230358 -0.00530314 0)
(-0.0232442 -0.00529322 0)
(-0.0235314 -0.00523431 0)
(-0.0237185 -0.00518017 0)
(-0.0238521 -0.00517612 0)
(-0.0240304 -0.00514585 0)
(-0.0241288 -0.00512293 0)
(-0.0242236 -0.0051232 0)
(-0.0243195 -0.00510807 0)
(-0.0243694 -0.00510543 0)
(-0.0244262 -0.00510612 0)
(-0.0244612 -0.00510536 0)
(-0.0244836 -0.00511145 0)
(-0.0228685 -0.00557348 0)
(-0.0231732 -0.00549072 0)
(-0.0233933 -0.00547912 0)
(-0.0236872 -0.00541892 0)
(-0.0238778 -0.00536454 0)
(-0.0240158 -0.00536111 0)
(-0.0242005 -0.00532827 0)
(-0.0243036 -0.00530324 0)
(-0.024401 -0.0053033 0)
(-0.0244984 -0.00528749 0)
(-0.024549 -0.00528484 0)
(-0.0246062 -0.00528546 0)
(-0.0246411 -0.00528442 0)
(-0.0246631 -0.00529052 0)
(-0.0229785 -0.00576553 0)
(-0.0232979 -0.0056773 0)
(-0.0235239 -0.00566906 0)
(-0.023823 -0.00560912 0)
(-0.0240206 -0.00555154 0)
(-0.0241681 -0.0055455 0)
(-0.0243601 -0.00550949 0)
(-0.0244657 -0.00548365 0)
(-0.0245648 -0.00548463 0)
(-0.0246642 -0.00546833 0)
(-0.0247162 -0.0054654 0)
(-0.0247742 -0.00546575 0)
(-0.024809 -0.00546431 0)
(-0.0248307 -0.00547038 0)
(-0.0230753 -0.00595638 0)
(-0.0234014 -0.00586941 0)
(-0.0236323 -0.00586587 0)
(-0.0239427 -0.00580081 0)
(-0.0241538 -0.00573567 0)
(-0.0243097 -0.00572801 0)
(-0.0245039 -0.00569202 0)
(-0.0246112 -0.00566674 0)
(-0.024715 -0.00566777 0)
(-0.0248183 -0.00564976 0)
(-0.0248718 -0.00564627 0)
(-0.0249303 -0.00564649 0)
(-0.024965 -0.00564479 0)
(-0.0249864 -0.0056509 0)
(-0.0231489 -0.00615355 0)
(-0.0234801 -0.00606931 0)
(-0.0237234 -0.00606305 0)
(-0.0240527 -0.00598765 0)
(-0.0242749 -0.00591809 0)
(-0.0244313 -0.00591388 0)
(-0.0246283 -0.00587848 0)
(-0.0247449 -0.00585067 0)
(-0.0248554 -0.00584937 0)
(-0.0249607 -0.00583021 0)
(-0.0250146 -0.00582733 0)
(-0.0250737 -0.00582779 0)
(-0.0251089 -0.00582582 0)
(-0.02513 -0.00583195 0)
(-0.0231943 -0.00635979 0)
(-0.0235377 -0.00626962 0)
(-0.0238034 -0.00625395 0)
(-0.0241496 -0.00617273 0)
(-0.0243716 -0.00610534 0)
(-0.0245306 -0.00610405 0)
(-0.0247442 -0.00606369 0)
(-0.0248699 -0.00603014 0)
(-0.024981 -0.00602948 0)
(-0.0250871 -0.00601223 0)
(-0.0251432 -0.00600974 0)
(-0.0252051 -0.00600963 0)
(-0.0252408 -0.00600722 0)
(-0.0252616 -0.00601343 0)
(-0.0232126 -0.00656861 0)
(-0.0235825 -0.0064632 0)
(-0.0238711 -0.00644166 0)
(-0.0242184 -0.00636269 0)
(-0.0244419 -0.00629718 0)
(-0.0246241 -0.00629157 0)
(-0.0248507 -0.00624196 0)
(-0.024974 -0.00620875 0)
(-0.0250877 -0.00621403 0)
(-0.0251995 -0.00619575 0)
(-0.0252621 -0.00619109 0)
(-0.0253251 -0.00619066 0)
(-0.0253603 -0.00618874 0)
(-0.0253812 -0.00619517 0)
(-0.023214 -0.0067723 0)
(-0.0236158 -0.00665093 0)
(-0.0239089 -0.00663268 0)
(-0.0242563 -0.00655858 0)
(-0.0245071 -0.00648678 0)
(-0.0247069 -0.00646976 0)
(-0.0249302 -0.00641941 0)
(-0.0250594 -0.00639466 0)
(-0.0251823 -0.00639817 0)
(-0.0253045 -0.00637422 0)
(-0.0253682 -0.00636993 0)
(-0.0254302 -0.00637206 0)
(-0.025467 -0.00637076 0)
(-0.0254887 -0.00637698 0)
(-0.0232022 -0.00696802 0)
(-0.0236201 -0.00683862 0)
(-0.0239131 -0.0068314 0)
(-0.0242858 -0.00675448 0)
(-0.0245593 -0.0066646 0)