/*--------------------------------*- C++ -*----------------------------------*\
| =========                 |                                                 |
| \\      /  F ield         | OpenFOAM Extend Project: Open source CFD        |
|  \\    /   O peration     | Version:  1.6-ext                               |
|   \\  /    A nd           | Web:      www.extend-project.de                 |
|    \\/     M anipulation  |                                                 |
\*---------------------------------------------------------------------------*/
FoamFile
{
    version     2.0;
    format      ascii;
    class       volScalarField;
    location    "0.2";
    object      p;
}
// * * * * * * * * * * * * * * * * * * * * * * * * * * * * * * * * * * * * * //

dimensions      [0 2 -2 0 0 0 0];

internalField   nonuniform List<scalar> 
20940
(
0.280222
0.22861
0.174479
0.117769
0.0589341
-0.00190156
-0.0641314
-0.127051
-0.189546
-0.250206
-0.3074
-0.359529
-0.405321
-0.444097
-0.475871
-0.501281
-0.52138
-0.53739
-0.550419
-0.561383
-0.571838
-0.582958
0.261391
0.209643
0.155202
0.0985824
0.040086
-0.0199153
-0.0807024
-0.141368
-0.200645
-0.257062
-0.309092
-0.355433
-0.395268
-0.428411
-0.455294
-0.476801
-0.494041
-0.508131
-0.519986
-0.530292
-0.540362
-0.551172
0.245446
0.193835
0.139373
0.0830872
0.0251874
-0.0336885
-0.0926841
-0.150692
-0.20634
-0.258174
-0.304872
-0.345509
-0.379736
-0.407807
-0.430466
-0.448727
-0.463662
-0.476237
-0.48716
-0.496908
-0.506561
-0.516919
0.229655
0.178414
0.124192
0.0685215
0.011563
-0.0457653
-0.10246
-0.157243
-0.208708
-0.255526
-0.296682
-0.331685
-0.360633
-0.384143
-0.403152
-0.418703
-0.43176
-0.443108
-0.45326
-0.46251
-0.471744
-0.48163
0.214758
0.163954
0.110105
0.0552158
-0.000550015
-0.055985
-0.109944
-0.161033
-0.207905
-0.249464
-0.285083
-0.314721
-0.338872
-0.358408
-0.374357
-0.387699
-0.399251
-0.40961
-0.419113
-0.427905
-0.436716
-0.446116
0.200677
0.15028
0.096885
0.0429216
-0.0113835
-0.0645502
-0.115326
-0.162288
-0.204259
-0.240475
-0.270744
-0.295443
-0.315376
-0.33156
-0.345013
-0.356597
-0.366958
-0.376517
-0.38546
-0.393815
-0.402187
-0.411082
0.187804
0.137752
0.0848826
0.0319631
-0.0206498
-0.071241
-0.118496
-0.161059
-0.198026
-0.229032
-0.254323
-0.274634
-0.290979
-0.304419
-0.315889
-0.3261
-0.335523
-0.344424
-0.352868
-0.360796
-0.368712
-0.37708
0.176212
0.126208
0.0737803
0.021914
-0.0288205
-0.0765514
-0.119978
-0.157936
-0.189886
-0.215909
-0.236658
-0.253144
-0.266489
-0.277717
-0.28763
-0.296773
-0.305452
-0.313798
-0.321783
-0.329284
-0.336723
-0.344542
0.16665
0.116537
0.0645679
0.0137512
-0.0350325
-0.0798314
-0.119399
-0.152846
-0.180048
-0.201529
-0.218298
-0.231561
-0.242471
-0.25196
-0.260678
-0.269001
-0.277089
-0.284961
-0.292517
-0.29959
-0.306537
-0.313785
0.158998
0.108111
0.0562482
0.00624493
-0.0405984
-0.0823882
-0.11802
-0.146992
-0.169643
-0.186933
-0.200165
-0.210667
-0.21956
-0.227653
-0.235429
-0.243103
-0.250706
-0.258159
-0.265308
-0.271955
-0.278397
-0.285058
0.154612
0.102875
0.0511325
0.00170333
-0.0435081
-0.0827056
-0.11488
-0.139923
-0.158613
-0.172306
-0.182556
-0.190774
-0.198036
-0.20502
-0.212058
-0.219224
-0.22643
-0.233518
-0.240288
-0.246522
-0.252463
-0.25853
0.152552
0.0986911
0.0462049
-0.00322414
-0.0470633
-0.0837887
-0.112587
-0.133833
-0.148756
-0.15909
-0.166594
-0.172732
-0.178515
-0.184499
-0.190875
-0.197582
-0.204428
-0.211179
-0.217593
-0.223431
-0.228885
-0.234371
0.155943
0.100559
0.0474965
-0.00257417
-0.0460847
-0.081604
-0.108307
-0.126924
-0.139056
-0.146777
-0.152059
-0.156451
-0.160952
-0.166043
-0.171813
-0.178099
-0.184618
-0.191067
-0.197163
-0.202648
-0.207663
-0.212616
0.160089
0.101322
0.0462157
-0.00502203
-0.0483565
-0.0826268
-0.10717
-0.123133
-0.132487
-0.137615
-0.140668
-0.143267
-0.146397
-0.150483
-0.15553
-0.16129
-0.167398
-0.173488
-0.179235
-0.18436
-0.188962
-0.193451
0.175329
0.11522
0.0583495
0.00440449
-0.041106
-0.0767555
-0.101704
-0.117234
-0.125536
-0.129247
-0.130745
-0.131829
-0.133613
-0.136592
-0.140793
-0.145944
-0.15163
-0.157422
-0.16294
-0.167859
-0.172223
-0.176427
0.175447
0.113858
0.0551133
-2.69152e-05
-0.0456578
-0.0804056
-0.103608
-0.116986
-0.12308
-0.12477
-0.124522
-0.124136
-0.124686
-0.126621
-0.129933
-0.134322
-0.139352
-0.144576
-0.149605
-0.154114
-0.158129
-0.162034
0.141022
0.0765509
0.0189003
-0.031283
-0.0696256
-0.0964174
-0.112308
-0.119908
-0.121935
-0.121036
-0.119229
-0.117879
-0.117722
-0.118998
-0.121602
-0.125216
-0.129434
-0.133857
-0.13815
-0.142041
-0.145601
-0.149192
0.121918
0.0578855
0.00158853
-0.0451229
-0.079279
-0.101832
-0.114178
-0.119172
-0.119438
-0.117362
-0.114684
-0.112558
-0.1116
-0.112014
-0.11371
-0.116415
-0.119774
-0.123438
-0.127104
-0.130529
-0.133808
-0.137266
0.105382
0.0420903
-0.0120821
-0.0550518
-0.0853963
-0.104471
-0.114204
-0.117403
-0.116516
-0.113653
-0.110323
-0.107524
-0.105801
-0.10535
-0.106117
-0.107886
-0.110364
-0.113253
-0.116288
-0.119251
-0.122266
-0.125638
0.0957773
0.0338555
-0.0182292
-0.058127
-0.0857856
-0.102671
-0.11101
-0.113387
-0.112045
-0.108842
-0.105124
-0.101796
-0.0993822
-0.0981065
-0.0979713
-0.0988283
-0.100447
-0.102579
-0.104991
-0.107486
-0.110204
-0.113431
0.0944539
0.0342077
-0.016151
-0.0539031
-0.0800466
-0.0959328
-0.103887
-0.106214
-0.104971
-0.101822
-0.0980077
-0.0943813
-0.0914698
-0.0895361
-0.0886399
-0.0886961
-0.089532
-0.0909435
-0.0927257
-0.094701
-0.0970063
-0.0999004
0.102509
0.0438966
-0.00531336
-0.0418956
-0.0675685
-0.0834647
-0.0918685
-0.0948233
-0.0942175
-0.0915724
-0.0880495
-0.0844742
-0.0813831
-0.0790746
-0.0776587
-0.0771044
-0.0772879
-0.0780428
-0.0791898
-0.0805695
-0.0822876
-0.0845604
0.120101
0.0629035
0.0142632
-0.0220356
-0.0481226
-0.0648855
-0.0744667
-0.0786844
-0.0792705
-0.0776319
-0.0748687
-0.0717833
-0.0689189
-0.0666004
-0.0649759
-0.0640566
-0.0637582
-0.063944
-0.0644582
-0.0651587
-0.0660847
-0.0673923
0.146669
0.0904568
0.0418583
0.00504494
-0.0222091
-0.0405805
-0.0519976
-0.0580866
-0.0604276
-0.0603284
-0.0588311
-0.0567131
-0.0545166
-0.0525825
-0.0510854
-0.0500685
-0.0494777
-0.0492002
-0.0491014
-0.0490555
-0.0489977
-0.0490043
0.179458
0.123884
0.0750553
0.0371961
0.00827874
-0.0122232
-0.0259768
-0.034433
-0.0390177
-0.0409383
-0.0411719
-0.0404623
-0.0393404
-0.0381531
-0.0370927
-0.0362266
-0.0355264
-0.0348993
-0.0342326
-0.0334151
-0.0322479
-0.0307069
0.216122
0.160736
0.11145
0.0720876
0.0410809
0.018003
0.00147154
-0.00979213
-0.0170554
-0.0214175
-0.0237825
-0.0248519
-0.025139
-0.0249921
-0.0246181
-0.0241082
-0.0234602
-0.0226046
-0.0214541
-0.0199151
-0.0176405
-0.0144936
0.250406
0.19526
0.145757
0.104994
0.0719661
0.0463189
0.026954
0.0127762
0.00268865
-0.00428297
-0.0089551
-0.0119759
-0.013834
-0.0148747
-0.0153194
-0.0152851
-0.014802
-0.0138331
-0.0123277
-0.0102203
-0.00704083
-0.00253067
0.282843
0.227513
0.17747
0.13491
0.0994568
0.0708724
0.0483497
0.0309936
0.0178769
0.00814453
0.00105696
-0.00399333
-0.00748208
-0.00976275
-0.0110801
-0.0115864
-0.0113565
-0.0104031
-0.00873034
-0.00632439
-0.00267431
0.00255111
0.30234
0.247426
0.197569
0.154154
0.117243
0.0866967
0.0619376
0.0422498
0.0268588
0.0150215
0.006072
-0.000554959
-0.00531726
-0.00856886
-0.0105705
-0.0115059
-0.0114992
-0.0106318
-0.00899046
-0.00666358
-0.00328608
0.00148989
0.327667
0.271082
0.218752
0.171969
0.131332
0.0969759
0.0685827
0.0455947
0.0273196
0.0130325
0.00204357
-0.00625718
-0.0123744
-0.0166975
-0.0195056
-0.0209852
-0.021262
-0.020442
-0.0186767
-0.0162131
-0.013232
-0.0100591
1.58642
1.63786
1.68932
1.74069
1.79153
1.84143
1.88997
1.93674
1.98134
2.02336
2.06244
2.09821
2.13038
2.15868
2.183
2.20339
2.22017
2.23405
2.24603
2.25735
2.27094
2.28873
1.57848
1.62962
1.68045
1.73118
1.78136
1.83054
1.87834
1.92435
1.96816
2.00937
2.04763
2.08257
2.1139
2.14137
2.16488
2.18448
2.20054
2.2138
2.22528
2.23627
2.24969
2.26743
1.55842
1.60886
1.6584
1.70788
1.75675
1.80459
1.85099
1.89556
1.93789
1.9776
2.0143
2.04767
2.07741
2.10327
2.12518
2.14322
2.15783
2.16982
2.18029
2.1906
2.20365
2.22124
1.52948
1.57886
1.62643
1.67397
1.72081
1.76653
1.81074
1.85304
1.89303
1.93034
1.9646
1.99548
2.02269
2.04602
2.0654
2.081
2.09332
2.10331
2.1122
2.12141
2.13386
2.15121
1.49096
1.53891
1.5839
1.6289
1.67311
1.71607
1.75743
1.79677
1.83373
1.86791
1.89898
1.92659
1.95049
1.97047
1.98651
1.99885
2.00813
2.01545
2.0222
2.02993
2.04155
2.05853
1.44459
1.49075
1.53256
1.57446
1.61543
1.655
1.69283
1.72854
1.76175
1.79208
1.81919
1.84277
1.86256
1.87839
1.89029
1.89858
1.90407
1.90803
1.91208
1.91794
1.92847
1.94493
1.39129
1.43532
1.47344
1.51176
1.54897
1.58462
1.61839
1.64988
1.67873
1.70458
1.72709
1.74596
1.76093
1.77188
1.77888
1.78238
1.78334
1.78328
1.78408
1.78764
1.79681
1.81255
1.3328
1.37436
1.40836
1.44268
1.47568
1.50691
1.5361
1.56284
1.58678
1.60755
1.62485
1.63836
1.64785
1.65323
1.65463
1.65262
1.64835
1.64362
1.6406
1.64143
1.64891
1.66371
1.27063
1.30938
1.33893
1.36893
1.39738
1.42386
1.4481
1.46969
1.48829
1.50355
1.51514
1.52277
1.52623
1.52544
1.5206
1.5124
1.50223
1.49218
1.48476
1.48237
1.48781
1.50138
1.20675
1.2424
1.26728
1.2927
1.31629
1.33768
1.35661
1.37267
1.38552
1.39481
1.40023
1.4015
1.3984
1.39088
1.37921
1.36422
1.34751
1.33152
1.31915
1.31309
1.31611
1.32811
1.14253
1.17475
1.19488
1.21566
1.23431
1.25053
1.26405
1.27445
1.2814
1.28454
1.28355
1.27816
1.26815
1.25349
1.2345
1.21215
1.18829
1.16572
1.14779
1.13752
1.13765
1.14769
1.08021
1.10871
1.12404
1.14
1.15353
1.16436
1.17222
1.1767
1.17744
1.17411
1.16638
1.15398
1.13669
1.11452
1.08782
1.0577
1.02626
0.996673
0.972737
0.957873
0.954765
0.962391
1.02009
1.04453
1.05551
1.06693
1.07563
1.08138
1.08388
1.0827
1.07748
1.06786
1.05352
1.03414
1.00952
0.979633
0.944896
0.90652
0.866874
0.829575
0.798949
0.778881
0.772014
0.776756
0.9656
0.984963
0.991495
0.998151
1.00181
1.00223
0.999076
0.991932
0.980423
0.964191
0.942905
0.916277
0.8841
0.846376
0.803572
0.757027
0.709355
0.664554
0.627417
0.602224
0.591466
0.592834
0.914361
0.928619
0.932149
0.934699
0.934155
0.930138
0.922245
0.910034
0.893096
0.871034
0.843477
0.810086
0.770607
0.724995
0.673711
0.618182
0.561311
0.507652
0.462755
0.431597
0.41668
0.414723
0.87535
0.87759
0.8782
0.876456
0.870922
0.861585
0.847975
0.829679
0.806297
0.777441
0.742748
0.701903
0.654698
0.601192
0.542034
0.478945
0.415211
0.355749
0.306325
0.271877
0.254343
0.249641
0.834212
0.826712
0.822418
0.813424
0.800514
0.783442
0.761741
0.735093
0.703158
0.665626
0.622231
0.572784
0.517278
0.456093
0.390344
0.322287
0.255586
0.195077
0.145841
0.111731
0.093385
0.0860022
0.785412
0.771001
0.761934
0.7464
0.727224
0.703475
0.674855
0.641086
0.60188
0.557
0.506266
0.449613
0.387223
0.31976
0.248723
0.176776
0.107842
0.0466566
-0.00225431
-0.0359302
-0.0548958
-0.064574
0.733974
0.713815
0.699498
0.677643
0.652407
0.622255
0.587156
0.546831
0.501053
0.449648
0.392517
0.32972
0.261634
0.189222
0.114359
0.0400643
-0.0295926
-0.0901162
-0.137646
-0.170144
-0.189157
-0.200421
0.680947
0.655743
0.636075
0.608367
0.57743
0.541337
0.500301
0.454031
0.402372
0.345221
0.282576
0.214649
0.142054
0.0660818
-0.0110285
-0.0859877
-0.15474
-0.213222
-0.258369
-0.289072
-0.307709
-0.32005
0.627695
0.598058
0.57316
0.540157
0.503992
0.462569
0.416284
0.364838
0.308152
0.246196
0.179081
0.107195
0.0314118
-0.046649
-0.124435
-0.198512
-0.265008
-0.320436
-0.362576
-0.391166
-0.40919
-0.422244
0.575755
0.542211
0.512342
0.474616
0.433746
0.387645
0.336825
0.280994
0.220156
0.154356
0.083839
0.00919144
-0.0684382
-0.147124
-0.224084
-0.295882
-0.35899
-0.410605
-0.449342
-0.475654
-0.492924
-0.506411
0.526264
0.489279
0.4548
0.41294
0.367937
0.317846
0.263231
0.203832
0.139728
0.0710595
-0.00177833
-0.0779792
-0.15612
-0.234015
-0.30876
-0.377066
-0.435894
-0.483181
-0.518315
-0.542315
-0.558762
-0.572471
0.480549
0.440524
0.401857
0.356427
0.307862
0.254448
0.196753
0.134568
0.0680533
-0.00254156
-0.0766487
-0.15323
-0.230606
-0.306403
-0.377719
-0.441563
-0.495488
-0.538176
-0.569688
-0.591447
-0.607057
-0.620824
0.439058
0.396348
0.353958
0.305505
0.25396
0.197879
0.137811
0.0736116
0.00552799
-0.0660599
-0.140395
-0.216206
-0.291599
-0.364105
-0.430962
-0.489608
-0.538244
-0.576261
-0.604262
-0.623912
-0.638699
-0.652389
0.402632
0.357558
0.311935
0.26096
0.206972
0.148815
0.0870014
0.021476
-0.0474166
-0.119144
-0.192746
-0.266733
-0.339059
-0.407272
-0.468884
-0.521859
-0.565069
-0.598526
-0.623235
-0.640954
-0.654949
-0.668443
0.370571
0.323445
0.275096
0.222091
0.166198
0.106543
0.0436073
-0.0225598
-0.0914971
-0.162501
-0.234404
-0.305538
-0.373788
-0.436847
-0.49262
-0.539664
-0.577488
-0.606615
-0.6283
-0.644276
-0.657505
-0.670691
0.343361
0.29453
0.243975
0.189387
0.132065
0.0714036
0.00786872
-0.0583625
-0.12669
-0.19622
-0.265591
-0.333007
-0.396388
-0.453695
-0.503323
-0.544439
-0.577119
-0.602263
-0.621247
-0.635674
-0.648165
-0.660943
0.319014
0.268829
0.216577
0.160856
0.102593
0.0414322
-0.0221467
-0.0878134
-0.154805
-0.222033
-0.287976
-0.350794
-0.408568
-0.459643
-0.502969
-0.538298
-0.566167
-0.587714
-0.604311
-0.617362
-0.629122
-0.641383
0.298653
0.24752
0.194069
0.137626
0.0788397
0.0176003
-0.0455685
-0.110156
-0.175222
-0.239492
-0.301342
-0.358988
-0.410784
-0.455543
-0.492775
-0.522736
-0.546298
-0.564702
-0.579219
-0.591019
-0.60198
-0.613517
0.31531
0.263204
0.208652
0.151011
0.0909167
0.0283025
-0.0362718
-0.10222
-0.168507
-0.233755
-0.296248
-0.354156
-0.405843
-0.450195
-0.486831
-0.516121
-0.539028
-0.556847
-0.570873
-0.582269
-0.592864
-0.604019
0.336067
0.284696
0.231162
0.174134
0.114488
0.051915
-0.0130927
-0.0801431
-0.148396
-0.216663
-0.283324
-0.346472
-0.404175
-0.454835
-0.49751
-0.53208
-0.5592
-0.580082
-0.596134
-0.608759
-0.620148
-0.63203
0.360107
0.309952
0.25798
0.202025
0.143288
0.0812132
0.0162624
-0.051341
-0.120936
-0.191539
-0.261691
-0.329511
-0.392882
-0.449795
-0.498743
-0.539031
-0.570874
-0.595273
-0.613658
-0.627638
-0.639769
-0.652192
0.386223
0.337722
0.287874
0.233492
0.17619
0.115153
0.0508441
-0.0166554
-0.086838
-0.158924
-0.231654
-0.303265
-0.371581
-0.434297
-0.489398
-0.535573
-0.572488
-0.600795
-0.62183
-0.637339
-0.650225
-0.663098
0.4165
0.370085
0.322938
0.270619
0.21526
0.155773
0.0926416
0.0258332
-0.0442735
-0.117085
-0.191555
-0.266099
-0.338591
-0.406552
-0.467543
-0.519651
-0.56191
-0.594489
-0.618498
-0.635734
-0.64941
-0.662645
0.450598
0.406643
0.362752
0.313013
0.260153
0.2028
0.14147
0.0760353
0.00676558
-0.0659103
-0.14116
-0.217619
-0.293303
-0.365689
-0.432031
-0.489864
-0.537552
-0.574658
-0.601924
-0.621076
-0.635573
-0.649067
0.489439
0.448294
0.40818
0.361529
0.311709
0.257072
0.19816
0.13477
0.0670809
-0.00462083
-0.0797042
-0.157044
-0.234865
-0.310716
-0.381679
-0.444829
-0.497862
-0.539647
-0.570409
-0.591665
-0.607016
-0.62066
0.532409
0.494419
0.458559
0.415531
0.369318
0.318035
0.262225
0.201628
0.136337
0.0665216
-0.00737305
-0.0844632
-0.16323
-0.241396
-0.316006
-0.383803
-0.441862
-0.488306
-0.522705
-0.546212
-0.562435
-0.576098
0.579249
0.544781
0.513589
0.474722
0.432667
0.38538
0.333358
0.27631
0.214247
0.147235
0.0755599
-0.000127389
-0.0785876
-0.157795
-0.234892
-0.306429
-0.368963
-0.419854
-0.457916
-0.483763
-0.500852
-0.514373
0.628766
0.598235
0.572055
0.537907
0.500556
0.457926
0.410409
0.357699
0.299727
0.236473
0.168079
0.0949873
0.0181524
-0.0607058
-0.138938
-0.213063
-0.279246
-0.334138
-0.375712
-0.403894
-0.42179
-0.434961
0.679881
0.653765
0.632834
0.603952
0.571805
0.534465
0.492146
0.444549
0.391523
0.332973
0.268918
0.199611
0.125736
0.0486777
-0.0292159
-0.104576
-0.173339
-0.231535
-0.276282
-0.306671
-0.325247
-0.337793
0.731084
0.709953
0.694378
0.671301
0.644816
0.613365
0.57692
0.535194
0.487959
0.435045
0.376368
0.312016
0.242422
0.168636
0.0926435
0.0175665
-0.0524722
-0.113024
-0.160375
-0.192692
-0.211729
-0.223294
0.780989
0.765511
0.755184
0.738374
0.7179
0.692793
0.662757
0.627506
0.586748
0.540247
0.48783
0.429453
0.36534
0.296229
0.223726
0.150614
0.080904
0.019337
-0.0296663
-0.0633331
-0.0824277
-0.0925069
0.828536
0.819796
0.814226
0.803902
0.789645
0.77117
0.747999
0.719806
0.686245
0.647002
0.601811
0.550497
0.493082
0.430005
0.362476
0.292879
0.224992
0.16371
0.114063
0.0797471
0.061145
0.0532543
0.868953
0.869848
0.869189
0.866098
0.859174
0.84839
0.833259
0.813357
0.788276
0.75762
0.721022
0.678171
0.628876
0.573235
0.511977
0.446948
0.381579
0.320901
0.270693
0.235779
0.217838
0.212517
0.906561
0.91935
0.921566
0.922767
0.920797
0.915292
0.90583
0.891958
0.873256
0.849321
0.819776
0.784284
0.742601
0.694721
0.641173
0.583503
0.524761
0.469629
0.423705
0.39189
0.376441
0.373791
0.95598
0.973755
0.978953
0.984233
0.986428
0.985326
0.980567
0.97172
0.958403
0.940251
0.916931
0.888154
0.853726
0.813683
0.768558
0.719799
0.670155
0.623747
0.585428
0.559433
0.54805
0.548695
1.00892
1.03183
1.04147
1.05152
1.05875
1.06297
1.06384
1.06093
1.05388
1.04231
1.0259
1.00434
0.977429
0.945179
0.908068
0.867408
0.825697
0.786674
0.754739
0.733757
0.726195
0.730203
1.06761
1.09461
1.10861
1.1232
1.13526
1.14456
1.15079
1.15355
1.15246
1.14718
1.13739
1.12281
1.10325
1.07872
1.04966
1.01726
0.983722
0.952366
0.927057
0.911217
0.90738
0.914285
1.12882
1.15966
1.17848
1.19793
1.21515
1.22987
1.24179
1.2505
1.25564
1.25687
1.25386
1.24633
1.23408
1.21711
1.1958
1.17119
1.14525
1.1209
1.10155
1.09028
1.08967
1.09901
1.1923
1.22667
1.25027
1.2744
1.29661
1.31654
1.33393
1.34835
1.35946
1.36691
1.37037
1.36958
1.36433
1.35459
1.34068
1.3235
1.30477
1.28703
1.27327
1.26621
1.26851
1.27987
1.25586
1.29346
1.32181
1.35059
1.37773
1.40283
1.4256
1.44565
1.4626
1.4761
1.48585
1.49154
1.49296
1.49007
1.48311
1.47285
1.46074
1.44901
1.44026
1.4369
1.44165
1.45463
1.31819
1.35873
1.39161
1.42479
1.45657
1.48653
1.51436
1.53966
1.56206
1.58122
1.5968
1.60851
1.61613
1.61956
1.619
1.61507
1.60901
1.60272
1.59844
1.59835
1.6052
1.61947
1.37733
1.42048
1.45758
1.49487
1.53099
1.56548
1.59802
1.62821
1.65568
1.68006
1.70103
1.71827
1.73155
1.74075
1.74598
1.74775
1.74708
1.7456
1.74525
1.74797
1.75656
1.77184
1.43177
1.4772
1.51811
1.55911
1.59911
1.63766
1.67442
1.70899
1.74098
1.77003
1.79579
1.81795
1.83625
1.85055
1.8609
1.86767
1.87173
1.87443
1.87747
1.88259
1.89262
1.90868
1.47976
1.52711
1.57134
1.61558
1.65898
1.70108
1.74153
1.77991
1.81584
1.84895
1.87887
1.90529
1.92794
1.94663
1.96137
1.97244
1.98051
1.98676
1.99264
1.99976
2.01096
2.02761
1.5203
1.56921
1.61618
1.66311
1.70931
1.75434
1.79783
1.83936
1.87854
1.91499
1.94835
1.97828
2.0045
2.0268
2.04515
2.05972
2.07108
2.08022
2.08842
2.09713
2.10925
2.12634
1.55161
1.60172
1.65082
1.69986
1.74826
1.7956
1.84148
1.88549
1.92723
1.96631
2.00236
2.03504
2.06405
2.08918
2.11033
2.12763
2.14153
2.1529
2.16287
2.17282
2.18562
2.20304
1.57429
1.62523
1.67579
1.72626
1.77615
1.82503
1.87251
1.91818
1.96163
2.00247
2.04032
2.07485
2.10574
2.13276
2.15581
2.17496
2.19059
2.20348
2.21465
2.22542
2.23869
2.25632
1.585
1.63638
1.68775
1.73902
1.78977
1.83957
1.888
1.93466
1.97914
2.02104
2.05998
2.09561
2.12763
2.15579
2.17996
2.20019
2.21683
2.23059
2.24246
2.25371
2.26724
2.285
0.295835
0.275499
0.257815
0.240208
0.223598
0.208039
0.193999
0.181595
0.171543
0.163696
0.159291
0.157357
0.160832
0.165146
0.180203
0.180756
0.147951
0.12985
0.114085
0.1049
0.103641
0.111451
0.128565
0.15452
0.186663
0.222723
0.25651
0.288539
0.307793
0.332855
0.243521
0.223342
0.206099
0.189151
0.173248
0.158346
0.14488
0.132742
0.122779
0.114351
0.109257
0.105375
0.107428
0.108518
0.122253
0.121416
0.0856868
0.0678425
0.0525935
0.0445315
0.0447167
0.0539654
0.0723443
0.099177
0.131886
0.168088
0.202084
0.233911
0.253568
0.276969
0.188501
0.168238
0.151215
0.134752
0.11947
0.105275
0.0925891
0.0811463
0.0718819
0.0637899
0.0590078
0.0545657
0.0561709
0.0553475
0.0673863
0.0646394
0.029745
0.0130247
-0.000335446
-0.00650736
-0.0047419
0.00555738
0.0244447
0.0512823
0.0837377
0.119463
0.153225
0.184501
0.204334
0.225279
0.130747
0.110764
0.0942932
0.0786855
0.0644376
0.0514288
0.0400453
0.0299034
0.0219142
0.0148343
0.0107945
0.00649336
0.00758344
0.00568686
0.0151491
0.0111906
-0.0190974
-0.0325888
-0.0424267
-0.0456928
-0.0418925
-0.0304895
-0.0113505
0.0149647
0.0463791
0.080611
0.11298
0.142469
0.161452
0.179059
0.0707198
0.0512286
0.0355449
0.0210988
0.00828537
-0.00301027
-0.0124517
-0.020485
-0.0263218
-0.0313008
-0.033577
-0.0364148
-0.034898
-0.0365698
-0.0291542
-0.0332882
-0.0566727
-0.0661886
-0.0723727
-0.0730455
-0.0677696
-0.0558995
-0.0371552
-0.0119757
0.0178092
0.0499833
0.0803558
0.107443
0.124984
0.138903
0.0085926
-0.00993428
-0.0243198
-0.0370083
-0.0476959
-0.0564857
-0.0631269
-0.0681089
-0.0708611
-0.0727287
-0.0723361
-0.0726668
-0.0698847
-0.0702953
-0.0641383
-0.0674325
-0.0831714
-0.0885814
-0.0913682
-0.0898819
-0.0836026
-0.0717154
-0.0537965
-0.0301773
-0.00247505
0.0271669
0.0550062
0.0791911
0.0947931
0.104943
-0.0549726
-0.0719349
-0.0843646
-0.0945522
-0.102289
-0.107687
-0.110624
-0.11164
-0.11044
-0.108328
-0.104454
-0.101419
-0.0965184
-0.0947814
-0.0889303
-0.0905322
-0.0991606
-0.101082
-0.101274
-0.0983768
-0.0916739
-0.0801846
-0.0633843
-0.0415404
-0.0161174
0.0107983
0.0358477
0.0569159
0.0703099
0.0768675
-0.119181
-0.133765
-0.143378
-0.150156
-0.154011
-0.155115
-0.153525
-0.149857
-0.144109
-0.137529
-0.129744
-0.122948
-0.115421
-0.11105
-0.104689
-0.104166
-0.107105
-0.106413
-0.104786
-0.101022
-0.0942159
-0.0832941
-0.067693
-0.0476567
-0.0245415
-0.000379162
0.0218027
0.0397362
0.0508294
0.0541256
-0.182815
-0.194054
-0.199887
-0.202323
-0.201438
-0.197529
-0.190864
-0.182157
-0.171671
-0.160578
-0.148872
-0.138356
-0.128052
-0.120925
-0.113458
-0.110729
-0.109605
-0.10711
-0.104284
-0.10001
-0.0932435
-0.0828972
-0.068424
-0.05008
-0.0291502
-0.00761318
0.0117911
0.0267388
0.035589
0.0360355
-0.24436
-0.251233
-0.252357
-0.249656
-0.243418
-0.234112
-0.222223
-0.208553
-0.193566
-0.178337
-0.163081
-0.149252
-0.136355
-0.126652
-0.117738
-0.11297
-0.109213
-0.105489
-0.101822
-0.0971542
-0.0903867
-0.0804844
-0.0669578
-0.0500949
-0.0311303
-0.0119849
0.00485426
0.0170821
0.0238568
0.0218827
-0.302109
-0.303717
-0.299422
-0.291113
-0.279302
-0.264643
-0.247804
-0.22964
-0.210731
-0.192022
-0.173832
-0.157296
-0.142199
-0.130284
-0.119806
-0.113268
-0.107891
-0.103246
-0.0988794
-0.0937747
-0.0868594
-0.0771956
-0.0643746
-0.0487252
-0.0314427
-0.0143836
0.000188775
0.0100379
0.0149773
0.0109878
-0.354435
-0.350196
-0.340162
-0.326207
-0.309045
-0.289487
-0.268316
-0.24639
-0.224319
-0.202903
-0.182474
-0.163893
-0.147074
-0.133383
-0.121401
-0.113371
-0.106971
-0.101508
-0.0964303
-0.0907565
-0.0834994
-0.0738407
-0.0614626
-0.0467349
-0.0308181
-0.0154988
-0.0028429
0.00500838
0.00839398
0.00274995
-0.400098
-0.389894
-0.374269
-0.355071
-0.333166
-0.309454
-0.284763
-0.259904
-0.235457
-0.212075
-0.190054
-0.170028
-0.151952
-0.13691
-0.123605
-0.114327
-0.107172
-0.10088
-0.0950078
-0.0886118
-0.0808224
-0.0709457
-0.0587548
-0.0446565
-0.0297785
-0.0158354
-0.00472122
0.0015254
0.00365621
-0.00332744
-0.438496
-0.4227
-0.402061
-0.378369
-0.352563
-0.325574
-0.298209
-0.271203
-0.245074
-0.220342
-0.19725
-0.176255
-0.157313
-0.141288
-0.126907
-0.116581
-0.108734
-0.101562
-0.0948038
-0.08756
-0.0790852
-0.0688031
-0.0565701
-0.0428248
-0.0286646
-0.0157356
-0.00578588
-0.000758847
0.000415557
-0.00762779
-0.469744
-0.44913
-0.424345
-0.397084
-0.368296
-0.338885
-0.309605
-0.281103
-0.25383
-0.2282
-0.204408
-0.18278
-0.163261
-0.146536
-0.131341
-0.12013
-0.111554
-0.103464
-0.0957637
-0.087602
-0.0783458
-0.0675204
-0.0550537
-0.0414115
-0.0276655
-0.015403
-0.00625466
-0.00208529
-0.00158475
-0.0104255
-0.494571
-0.470139
-0.442192
-0.412298
-0.381375
-0.350274
-0.319682
-0.290167
-0.262123
-0.235887
-0.211621
-0.189566
-0.169652
-0.152424
-0.136651
-0.124685
-0.115324
-0.106321
-0.0976764
-0.0885919
-0.0785204
-0.067067
-0.054217
-0.0404591
-0.0268478
-0.0149273
-0.00624277
-0.00260412
-0.002526
-0.0119047
-0.514101
-0.486889
-0.45671
-0.425005
-0.39264
-0.360407
-0.328934
-0.298725
-0.270136
-0.243455
-0.218827
-0.196442
-0.176226
-0.158608
-0.142439
-0.129826
-0.119647
-0.109785
-0.100255
-0.0903038
-0.0794395
-0.0673221
-0.0539776
-0.0399155
-0.0261843
-0.0143073
-0.0057807
-0.00238955
-0.00253107
-0.0121896
-0.529595
-0.500524
-0.468887
-0.43601
-0.402708
-0.369726
-0.337645
-0.306929
-0.27791
-0.250849
-0.225889
-0.203194
-0.182699
-0.164739
-0.148293
-0.13512
-0.124139
-0.113516
-0.103208
-0.0924951
-0.080904
-0.068123
-0.0542024
-0.0396707
-0.0255848
-0.0134755
-0.00483291
-0.001455
-0.00168092
-0.0113858
-0.542176
-0.511972
-0.479445
-0.445838
-0.411931
-0.378434
-0.3459
-0.314769
-0.285361
-0.25793
-0.232623
-0.209596
-0.188803
-0.170508
-0.153847
-0.140191
-0.12847
-0.11722
-0.106277
-0.0949381
-0.0827142
-0.0692954
-0.0547402
-0.0395943
-0.0249404
-0.0123477
-0.00335098
0.000194173
-6.24514e-05
-0.00964407
-0.552757
-0.521921
-0.488864
-0.454792
-0.420466
-0.386573
-0.353652
-0.322134
-0.292338
-0.264513
-0.238822
-0.21542
-0.194291
-0.175646
-0.158787
-0.144722
-0.132379
-0.120659
-0.109251
-0.0974414
-0.0846974
-0.0706845
-0.0554527
-0.0395644
-0.0241434
-0.0108335
-0.00127199
0.00257018
0.00223595
-0.0072098
-0.562854
-0.531648
-0.4982
-0.463743
-0.42903
-0.394739
-0.361403
-0.32945
-0.299198
-0.270902
-0.244735
-0.220866
-0.199311
-0.180259
-0.163163
-0.148744
-0.135939
-0.123929
-0.112252
-0.100144
-0.08699
-0.072396
-0.0563813
-0.0395197
-0.0230003
-0.00859322
0.00186593
0.00617623
0.00557415
-0.00426292
-0.573597
-0.542099
-0.508228
-0.473336
-0.438181
-0.40343
-0.369612
-0.337152
-0.306369
-0.277519
-0.250785
-0.226354
-0.204277
-0.184761
-0.167374
-0.152645
-0.139509
-0.127355
-0.115584
-0.10333
-0.0898485
-0.0746449
-0.0576811
-0.0395375
-0.0214898
-0.00549389
0.00631629
0.011338
0.0102952
-0.00112646
0.42039
0.420386
0.420391
0.420398
0.420411
0.420428
0.420451
0.420478
0.420512
0.420549
0.420592
0.420638
0.420688
0.42074
0.420796
0.420854
0.420914
0.420975
0.421038
0.421102
0.421166
0.42123
0.421293
0.421356
0.421681
0.421676
0.421682
0.42169
0.421704
0.421722
0.421747
0.421777
0.421813
0.421855
0.421901
0.421951
0.422005
0.422062
0.422123
0.422186
0.422251
0.422317
0.422386
0.422455
0.422524
0.422594
0.422663
0.422731
0.422966
0.422961
0.422967
0.422976
0.422991
0.423011
0.423038
0.423071
0.423111
0.423156
0.423206
0.42326
0.423319
0.423381
0.423447
0.423515
0.423586
0.423658
0.423732
0.423807
0.423883
0.423958
0.424033
0.424107
0.424244
0.424239
0.424246
0.424255
0.424272
0.424294
0.424324
0.42436
0.424403
0.424452
0.424506
0.424566
0.424629
0.424697
0.424768
0.424842
0.424919
0.424998
0.425078
0.425159
0.425241
0.425323
0.425405
0.425485
0.425516
0.425511
0.425519
0.425529
0.425547
0.425571
0.425604
0.425643
0.42569
0.425743
0.425802
0.425867
0.425936
0.426009
0.426086
0.426167
0.42625
0.426335
0.426422
0.426511
0.4266
0.426689
0.426777
0.426864
0.426782
0.426776
0.426784
0.426796
0.426815
0.426842
0.426877
0.42692
0.426971
0.427029
0.427093
0.427163
0.427238
0.427318
0.427402
0.427489
0.427579
0.427671
0.427766
0.427861
0.427958
0.428054
0.42815
0.428245
0.428039
0.428034
0.428043
0.428055
0.428076
0.428105
0.428144
0.428191
0.428246
0.428309
0.428379
0.428455
0.428536
0.428622
0.428713
0.428807
0.428905
0.429005
0.429108
0.429211
0.429316
0.429421
0.429525
0.429628
0.429289
0.429283
0.429293
0.429306
0.42933
0.429361
0.429403
0.429454
0.429514
0.429583
0.429658
0.429741
0.429829
0.429922
0.430021
0.430123
0.430229
0.430337
0.430448
0.430561
0.430674
0.430787
0.4309
0.431012
0.43053
0.430524
0.430534
0.430549
0.430575
0.430609
0.430655
0.43071
0.430775
0.43085
0.430932
0.431021
0.431117
0.431218
0.431324
0.431435
0.431549
0.431667
0.431787
0.431909
0.432031
0.432154
0.432277
0.432398
0.431762
0.431756
0.431767
0.431783
0.431811
0.431848
0.431898
0.431958
0.432029
0.432109
0.432198
0.432295
0.432399
0.432508
0.432623
0.432743
0.432867
0.432994
0.433124
0.433256
0.433389
0.433522
0.433655
0.433786
0.432983
0.432977
0.432989
0.433007
0.433037
0.433078
0.433132
0.433197
0.433274
0.433361
0.433458
0.433563
0.433675
0.433793
0.433918
0.434047
0.434181
0.434319
0.434459
0.434602
0.434745
0.43489
0.435034
0.435176
0.434194
0.434188
0.434201
0.43422
0.434253
0.434298
0.434356
0.434427
0.434511
0.434605
0.43471
0.434823
0.434944
0.435072
0.435206
0.435346
0.435491
0.43564
0.435792
0.435946
0.436102
0.436258
0.436414
0.436568
0.435394
0.435387
0.435402
0.435423
0.435459
0.435507
0.43557
0.435647
0.435738
0.43584
0.435953
0.436075
0.436206
0.436345
0.43649
0.436641
0.436797
0.436958
0.437122
0.437289
0.437457
0.437626
0.437795
0.437962
0.436581
0.436574
0.43659
0.436613
0.436652
0.436704
0.436773
0.436857
0.436955
0.437065
0.437187
0.437319
0.437461
0.43761
0.437767
0.43793
0.438099
0.438272
0.43845
0.43863
0.438812
0.438995
0.439177
0.439359
0.437755
0.437748
0.437765
0.437791
0.437833
0.43789
0.437964
0.438055
0.438161
0.43828
0.438412
0.438555
0.438707
0.438868
0.439037
0.439213
0.439395
0.439583
0.439774
0.439969
0.440165
0.440363
0.440561
0.440757
0.438915
0.438909
0.438927
0.438954
0.439
0.439062
0.439143
0.439241
0.439355
0.439484
0.439626
0.43978
0.439945
0.440118
0.4403
0.44049
0.440686
0.440888
0.441095
0.441305
0.441518
0.441732
0.441945
0.442158
0.44006
0.440054
0.440074
0.440104
0.440153
0.44022
0.440308
0.440414
0.440537
0.440676
0.44083
0.440996
0.441172
0.44136
0.441556
0.44176
0.441972
0.442189
0.442412
0.442639
0.442868
0.443099
0.443331
0.443561
0.44119
0.441184
0.441205
0.441237
0.441291
0.441364
0.441458
0.441573
0.441706
0.441856
0.442021
0.4422
0.44239
0.442591
0.442803
0.443022
0.44325
0.443485
0.443725
0.443969
0.444217
0.444466
0.444717
0.444966
0.442302
0.442296
0.44232
0.442355
0.442413
0.442492
0.442594
0.442717
0.442861
0.443022
0.4432
0.443392
0.443597
0.443813
0.44404
0.444277
0.444521
0.444774
0.445032
0.445296
0.445563
0.445833
0.446103
0.446373
0.443397
0.443391
0.443416
0.443455
0.443517
0.443603
0.443713
0.443846
0.444001
0.444174
0.444365