/*--------------------------------*- C++ -*----------------------------------*\
| =========                 |                                                 |
| \\      /  F ield         | OpenFOAM Extend Project: Open source CFD        |
|  \\    /   O peration     | Version:  1.6-ext                               |
|   \\  /    A nd           | Web:      www.extend-project.de                 |
|    \\/     M anipulation  |                                                 |
\*---------------------------------------------------------------------------*/
FoamFile
{
    version     2.0;
    format      ascii;
    class       surfaceScalarField;
    location    "0.2";
    object      phi;
}
// * * * * * * * * * * * * * * * * * * * * * * * * * * * * * * * * * * * * * //

dimensions      [0 3 -1 0 0 0 0];

internalField   nonuniform List<scalar> 
41420
(
-0.0001336
0.000371861
-0.000375559
0.000137298
-0.000129903
0.000356965
-0.000360662
-0.000126217
0.00034197
-0.000345656
-0.000122493
0.00032676
-0.000330483
-0.000118598
0.000311285
-0.00031518
-0.000114314
0.000295324
-0.000299608
-0.000109351
0.000278552
-0.000283515
-0.000103396
0.000260564
-0.000266519
-9.61877e-05
0.000240983
-0.000248191
-8.76046e-05
0.000219595
-0.000228178
-7.77334e-05
0.000196469
-0.00020634
-6.68893e-05
0.000172021
-0.000182865
-5.55717e-05
0.000146974
-0.000158291
-4.43719e-05
0.000122232
-0.000133432
-3.38612e-05
9.87094e-05
-0.00010922
-2.45025e-05
7.71747e-05
-8.65335e-05
-1.66002e-05
5.81538e-05
-6.60561e-05
-1.02969e-05
4.19039e-05
-4.82072e-05
-5.59904e-06
2.84439e-05
-3.31417e-05
-2.41747e-06
1.76127e-05
-2.07942e-05
-6.07278e-07
9.13533e-06
-1.09455e-05
2.68251e-06
-3.28978e-06
-0.000135524
0.00036856
0.000138826
-0.000132122
0.000353563
-0.000128628
0.000338476
-0.000124966
0.000323098
-0.000120966
0.000307285
-0.000116373
0.000290731
-0.00011088
0.000273058
-0.000104193
0.000253877
-9.61228e-05
0.000232912
-8.66585e-05
0.00021013
-7.6017e-05
0.000185827
-6.46249e-05
0.000160629
-5.30443e-05
0.000135393
-4.1867e-05
0.000111055
-3.16121e-05
8.84545e-05
-2.26584e-05
6.82211e-05
-1.52222e-05
5.07175e-05
-9.37056e-06
3.60523e-05
-5.05716e-06
2.41305e-05
-2.16305e-06
1.47185e-05
-5.32377e-07
7.50466e-06
2.15013e-06
-0.00014287
0.000365333
0.000146096
-0.000139438
0.000350132
-0.000135787
0.000334825
-0.000131801
0.000319112
-0.000127266
0.000302751
-0.000121894
0.000285359
-0.000115377
0.000266542
-0.000107473
0.000245973
-9.80926e-05
0.000223532
-8.73631e-05
0.000199401
-7.56408e-05
0.000174105
-6.34562e-05
0.000148444
-5.14161e-05
0.000123353
-4.00933e-05
9.97318e-05
-2.99411e-05
7.83022e-05
-2.12509e-05
5.9531e-05
-1.4153e-05
4.36197e-05
-8.64504e-06
3.05443e-05
-4.6322e-06
2.01176e-05
-1.96686e-06
1.20532e-05
-4.79479e-07
6.01729e-06
1.67065e-06
-0.000148555
0.000362258
0.00015163
-0.000145166
0.000346742
-0.000141404
0.000331063
-0.000137103
0.00031481
-0.000132006
0.000297654
-0.000125806
0.000279159
-0.000118225
0.000258961
-0.000109105
0.000236853
-9.84874e-05
0.000212914
-8.66479e-05
0.000187562
-7.40692e-05
0.000161526
-6.13546e-05
0.00013573
-4.91173e-05
0.000111116
-3.7879e-05
8.84935e-05
-2.8009e-05
6.84322e-05
-1.97079e-05
5.12298e-05
-1.30267e-05
3.69385e-05
-7.90482e-06
2.54224e-05
-4.21084e-06
1.64236e-05
-1.77819e-06
9.62055e-06
-4.30909e-07
4.67001e-06
1.23974e-06
-0.000152092
0.000359392
0.000154958
-0.000148801
0.000343451
-0.000144967
0.000327229
-0.000140364
0.000310208
-0.0001347
0.00029199
-0.000127673
0.000272131
-0.000119064
0.000250352
-0.000108829
0.000226619
-9.71568e-05
0.000201241
-8.44637e-05
0.000174868
-7.1331e-05
0.000148394
-5.83959e-05
0.000122795
-4.62407e-05
9.89606e-05
-3.53123e-05
7.75651e-05
-2.58876e-05
5.90076e-05
-1.8081e-05
4.34232e-05
-1.18761e-05
3.07336e-05
-7.16777e-06
2.0714e-05
-3.80022e-06
1.30561e-05
-1.59782e-06
7.41815e-06
-3.85359e-07
3.45755e-06
8.54383e-07
-0.000153627
0.000356781
0.000156239
-0.000150471
0.000340294
-0.000146578
0.000323336
-0.00014167
0.000305299
-0.000135433
0.000285753
-0.000127598
0.000264296
-0.000118038
0.000240792
-0.000106844
0.000215425
-9.43495e-05
0.000188747
-8.1092e-05
0.000161611
-6.77134e-05
0.000135015
-5.48452e-05
0.000109926
-4.30097e-05
8.71252e-05
-3.25659e-05
6.71213e-05
-2.37003e-05
5.0142e-05
-1.64516e-05
3.61745e-05
-1.07503e-05
2.50324e-05
-6.46028e-06
1.64239e-05
-3.41242e-06
1.00082e-05
-1.42992e-06
5.43565e-06
-3.43565e-07
2.37119e-06
5.10818e-07
-0.000153197
0.000354424
0.000155554
-0.000150176
0.000337274
-0.000146222
0.000319383
-0.000141014
0.000300091
-0.000134234
0.000278973
-0.00012567
0.000255733
-0.000115307
0.000230429
-0.000103375
0.000203493
-9.03413e-05
0.000175713
-7.6828e-05
0.000148098
-6.35e-05
0.000121687
-5.09498e-05
9.73761e-05
-3.96222e-05
7.57976e-05
-2.97861e-05
5.72852e-05
-2.1547e-05
4.19029e-05
-1.48828e-05
2.95103e-05
-9.68597e-06
1.98356e-05
-5.8015e-06
1.25395e-05
-3.05601e-06
7.26274e-06
-1.2774e-06
3.65704e-06
-3.06036e-07
1.39983e-06
2.04782e-07
-0.00015091
0.000352367
0.000152967
-0.000148066
0.000334429
-0.000144083
0.0003154
-0.000138612
0.00029462
-0.000131357
0.000271717
-0.000122187
0.000246563
-0.00011121
0.000219452
-9.8791e-05
0.000191074
-8.55036e-05
0.000162426
-7.20206e-05
0.000134615
-5.89934e-05
0.00010866
-4.69531e-05
8.53359e-05
-3.62601e-05
6.51046e-05
-2.70997e-05
4.81247e-05
-1.95103e-05
3.43135e-05
-1.34246e-05
2.34246e-05
-8.71066e-06
1.51216e-05
-5.20499e-06
9.03379e-06
-2.73662e-06
4.79436e-06
-1.14201e-06
2.06242e-06
-2.73045e-07
5.30866e-07
-6.82628e-08
-0.000146803
0.000350581
0.000148589
-0.000144131
0.000331757
-0.000140151
0.00031142
-0.000134501
0.000288969
-0.000126913
0.00026413
-0.000117344
0.000236994
-0.000106015
0.000208123
-9.34052e-05
0.000178464
-8.01606e-05
0.000149181
-6.69702e-05
0.000121424
-5.44475e-05
9.61372e-05
-4.30526e-05
7.3941e-05
-3.30655e-05
5.51175e-05
-2.46019e-05
3.96611e-05
-1.76494e-05
2.7361e-05
-1.2111e-05
1.78862e-05
-7.842e-06
1.08526e-05
-4.67855e-06
5.87034e-06
-2.4568e-06
2.57262e-06
-1.02409e-06
6.29717e-07
-2.44436e-07
-2.48792e-07
-3.12699e-07
-0.000141047
0.000349183
0.000142445
-0.000138668
0.000329378
-0.000134807
0.000307559
-0.00012911
0.000283272
-0.000121359
0.000256378
-0.000111605
0.000227241
-0.00010018
0.000196698
-8.76474e-05
0.000165932
-7.46942e-05
0.000136228
-6.19966e-05
0.000108727
-5.01141e-05
8.42547e-05
-3.94347e-05
6.32615e-05
-3.01692e-05
4.5852e-05
-2.23792e-05
3.1871e-05
-1.60184e-05
2.10003e-05
-1.09734e-05
1.28412e-05
-7.09661e-06
6.97578e-06
-4.22987e-06
3.0036e-06
-2.21943e-06
5.62173e-07
-9.24331e-07
-6.65381e-07
-2.20235e-07
-9.52889e-07
-5.32933e-07
-0.000133591
0.00034808
0.000134694
-0.0001315
0.000327287
-0.000127858
0.000303917
-0.000122313
0.000277728
-0.000114674
0.000248739
-0.000105059
0.000217626
-9.38707e-05
0.000185509
-8.17251e-05
0.000153786
-6.93179e-05
0.000123821
-5.72936e-05
9.67024e-05
-4.61544e-05
7.31155e-05
-3.6225e-05
5.33322e-05
-2.76637e-05
3.72907e-05
-2.04969e-05
2.47042e-05
-1.4661e-05
1.51643e-05
-1.00393e-05
8.21957e-06
-6.49043e-06
3.4269e-06
-3.867e-06
3.8017e-07
-2.02765e-06
-1.27718e-06
-8.43349e-07
-1.84968e-06
-2.00274e-07
-1.59596e-06
-7.33208e-07
-0.000124871
0.000347568
0.000125383
-0.000123321
0.000325737
-0.0001201
0.000300697
-0.000114903
0.00027253
-0.000107588
0.000241425
-9.83446e-05
0.000208382
-8.76293e-05
0.000174794
-7.6083e-05
0.00014224
-6.43862e-05
0.000112124
-5.31371e-05
8.54532e-05
-4.2779e-05
6.27574e-05
-3.35832e-05
4.41364e-05
-2.56695e-05
2.9377e-05
-1.90452e-05
1.80799e-05
-1.36435e-05
9.76265e-06
-9.356e-06
3.93205e-06
-6.05516e-06
1.26064e-07
-3.60942e-06
-2.06557e-06
-1.89196e-06
-2.99465e-06
-7.85702e-07
-2.95594e-06
-1.85795e-07
-2.19587e-06
-9.19003e-07
-0.000114371
0.000347321
0.000114618
-0.000113274
0.00032464
-0.000110659
0.000298082
-0.000106143
0.000268015
-9.95681e-05
0.000234849
-9.11243e-05
0.000199938
-8.12753e-05
0.000164945
-7.06501e-05
0.000131615
-5.98954e-05
0.000101369
-4.95612e-05
7.5119e-05
-4.00418e-05
5.32381e-05
-3.15713e-05
3.56659e-05
-2.42505e-05
2.20562e-05
-1.80848e-05
1.19143e-05
-1.30201e-05
4.69789e-06
-8.96805e-06
-1.19982e-07
-5.82446e-06
-3.01752e-06
-3.47966e-06
-4.41037e-06
-1.82492e-06
-4.64938e-06
-7.5638e-07
-4.02448e-06
-1.77504e-07
-2.77475e-06
-1.09651e-06
-0.000103452
0.000348079
0.000102694
-0.000103134
0.000324322
-0.000101232
0.00029618
-9.74848e-05
0.000264267
-9.17615e-05
0.000229126
-8.42599e-05
0.000192437
-7.54291e-05
0.000156114
-6.58622e-05
0.000122048
-5.61519e-05
9.16588e-05
-4.67883e-05
6.57554e-05
-3.81137e-05
4.45635e-05
-3.03293e-05
2.78816e-05
-2.35262e-05
1.5253e-05
-1.772e-05
6.10808e-06
-1.28804e-05
-1.41666e-07
-8.95042e-06
-4.04998e-06
-5.85773e-06
-6.11022e-06
-3.52135e-06
-6.74675e-06
-1.85532e-06
-6.31541e-06
-7.71359e-07
-5.10844e-06
-1.81474e-07
-3.36463e-06
-1.27798e-06
-8.97031e-05
0.00034891
8.88722e-05
-9.01305e-05
0.000324749
-8.93753e-05
0.000295425
-8.69497e-05
0.000261842
-8.26745e-05
0.000224851
-7.66783e-05
0.000186441
-6.93597e-05
0.000148795
-6.12491e-05
0.000113937
-5.28716e-05
8.32812e-05
-4.46562e-05
5.754e-05
-3.69063e-05
3.68135e-05
-2.98108e-05
2.07861e-05
-2.34731e-05
8.91529e-06
-1.79393e-05
5.74263e-07
-1.32193e-05
-4.86161e-06
-9.2999e-06
-7.96941e-06
-6.15064e-06
-9.25947e-06
-3.72717e-06
-9.17023e-06
-1.97244e-06
-8.07013e-06
-8.18441e-07
-6.26244e-06
-1.8868e-07
-3.99439e-06
-1.46666e-06
-0.000318219
0.000326422
0.000340707
-0.000292502
0.000299032
-0.000263266
0.000266189
-0.000231127
0.000229703
-0.000197507
0.00019123
-0.000164195
0.000153128
-0.0001329
0.000117501
-0.000104882
8.59191e-05
-8.08133e-05
5.92123e-05
-6.08385e-05
3.75652e-05
-4.47325e-05
2.07076e-05
-3.20647e-05
8.11833e-06
-2.2327e-05
-8.22461e-07
-1.50135e-05
-6.7392e-06
-9.66233e-06
-1.02128e-05
-5.87056e-06
-1.17612e-05
-3.29542e-06
-1.18346e-05
-1.64802e-06
-1.08176e-05
-6.85212e-07
-9.03294e-06
-2.01394e-07
-6.74626e-06
-2.22862e-08
-4.1735e-06
-1.48895e-06
-0.000300205
0.000300842
0.000325785
-0.000271052
0.000269879
-0.000238924
0.000234061
-0.000205151
0.00019593
-0.000171528
0.000157608
-0.000139764
0.000121365
-0.000111181
8.89176e-05
-8.6507e-05
6.12446e-05
-6.59302e-05
3.86354e-05
-4.92471e-05
2.08821e-05
-3.60326e-05
7.49303e-06
-2.57743e-05
-2.13994e-06
-1.796e-05
-8.63674e-06
-1.2123e-05
-1.25762e-05
-7.86022e-06
-1.44756e-05
-4.83367e-06
-1.47877e-05
-2.76441e-06
-1.39039e-05
-1.4231e-06
-1.21589e-05
-6.20541e-07
-9.8355e-06
-1.99615e-07
-7.16718e-06
-2.91673e-08
-4.34395e-06
-1.51811e-06
-0.000276205
0.0002717
0.000305348
-0.00024421
0.000237884
-0.000210529
0.00020038
-0.000176853
0.000162255
-0.000144906
0.000125661
-0.000116016
9.24746e-05
-9.09726e-05
6.38743e-05
-7.00048e-05
4.02768e-05
-5.29366e-05
2.15672e-05
-3.93531e-05
7.29864e-06
-2.87428e-05
-3.11733e-06
-2.05886e-05
-1.02941e-05
-1.44179e-05
-1.48075e-05
-9.82242e-06
-1.71716e-05
-6.4624e-06
-1.78357e-05
-4.06113e-06
-1.7189e-05
-2.39645e-06
-1.55686e-05
-1.29091e-06
-1.32645e-05
-6.026e-07
-1.05238e-05
-2.17077e-07
-7.55271e-06
-4.14316e-08
-4.51959e-06
-1.55955e-06
-0.00024713
0.000239788
0.000279041
-0.000213571
0.000204325
-0.00017997
0.000166778
-0.000147973
0.000130258
-0.000118935
9.66222e-05
-9.36683e-05
6.72078e-05
-7.2452e-05
4.2658e-05
-5.51401e-05
2.2965e-05
-4.13363e-05
7.76339e-06
-3.05348e-05
-3.50284e-06
-2.22169e-05
-1.14353e-05
-1.59025e-05
-1.66085e-05
-1.11733e-05
-1.95367e-05
-7.67838e-06
-2.06666e-05
-5.1316e-06
-2.03824e-05
-3.30543e-06
-1.90152e-05
-2.02234e-06
-1.68516e-05
-1.14643e-06
-1.41404e-05
-5.74696e-07
-1.10955e-05
-2.2965e-07
-7.89775e-06
-5.2684e-08
-4.69656e-06
-1.61223e-06
-0.000213889
0.000206377
0.0002473
-0.000180361
0.000170797
-0.000148408
0.000134825
-0.00011931
0.000101161
-9.3918e-05
7.12299e-05
-7.25506e-05
4.58404e-05
-5.51004e-05
2.52077e-05
-4.1197e-05
9.06165e-06
-3.03474e-05
-3.08619e-06
-2.20351e-05
-1.18152e-05
-1.5774e-05
-1.76964e-05
-1.11334e-05
-2.1249e-05
-7.74572e-06
-2.29244e-05
-5.306e-06
-2.31063e-05
-3.5687e-06
-2.21197e-05
-2.34207e-06
-2.02418e-05
-1.48169e-06
-1.7712e-05
-8.82963e-07
-1.47391e-05
-4.73777e-07
-1.15047e-05
-2.06966e-07
-8.16456e-06
-5.39514e-08
-4.84957e-06
-1.66618e-06
-0.000177765
0.000172965
0.000211177
-0.000145771
0.000138804
-0.000116637
0.000105691
-9.11517e-05
7.56755e-05
-6.96755e-05
4.97538e-05
-5.21493e-05
2.83142e-05
-3.8228e-05
1.12864e-05
-2.7438e-05
-1.72838e-06
-1.92683e-05
-1.12558e-05
-1.32307e-05
-1.78529e-05
-8.88381e-06
-2.20432e-05
-5.84269e-06
-2.42901e-05
-3.77958e-06
-2.49875e-05
-2.42268e-06
-2.44632e-05
-1.55382e-06
-2.29886e-05
-1.0051e-06
-2.07905e-05
-6.54468e-07
-1.80627e-05
-4.19579e-07
-1.4974e-05
-2.51181e-07
-1.16731e-05
-1.25706e-07
-8.29004e-06
-3.86725e-08
-4.93661e-06
-1.70485e-06
-0.000140173
0.000140908
0.00017223
-0.000110825
0.000109456
-8.51709e-05
8.00365e-05
-6.35476e-05
5.40522e-05
-4.59284e-05
3.21346e-05
-3.20115e-05
1.43973e-05
-2.13347e-05
6.09649e-07
-1.33945e-05
-9.66859e-06
-7.69916e-06
-1.69512e-05
-3.79847e-06
-2.17536e-05
-1.29235e-06
-2.45493e-05
1.67924e-07
-2.57504e-05
8.80873e-07
-2.57004e-05
1.09535e-06
-2.46777e-05
1.01178e-06
-2.2905e-05
7.83024e-07
-2.05618e-05
5.17961e-07
-1.77976e-05
2.84972e-07
-1.4741e-05
1.18958e-07
-1.15071e-05
2.72053e-08
-8.19829e-06
-2.94875e-09
-4.90645e-06
-1.7078e-06
-0.000102221
0.000111239
0.00013189
-7.61969e-05
8.34317e-05
-5.42901e-05
5.81297e-05
-3.6498e-05
3.62601e-05
-2.25363e-05
1.81728e-05
-1.19683e-05
3.82936e-06
-4.28847e-06
-7.0702e-06
1.0016e-06
-1.49587e-05
4.36491e-06
-2.03145e-05
6.21714e-06
-2.36058e-05
6.92584e-06
-2.5258e-05
6.81209e-06
-2.56367e-05
6.15181e-06
-2.50402e-05
5.17674e-06
-2.37026e-05
4.07363e-06
-2.18019e-05
2.98593e-06
-1.94741e-05
2.01409e-06
-1.68258e-05
1.22065e-06
-1.39476e-05
6.32999e-07
-1.09195e-05
2.5144e-07
-7.81673e-06
5.3516e-08
-4.70853e-06
-1.65429e-06
-6.51608e-05
8.45749e-05
9.18244e-05
-4.27252e-05
6.0996e-05
-2.45479e-05
3.99524e-05
-1.03927e-05
2.21049e-05
1.71372e-07
7.60876e-06
7.64541e-06
-3.64468e-06
1.25436e-05
-1.19683e-05
1.53495e-05
-1.77646e-05
1.65022e-05
-2.14672e-05
1.63925e-05
-2.3496e-05
1.53642e-05
-2.42297e-05
1.37166e-05
-2.39891e-05
1.17066e-05
-2.30301e-05
9.54855e-06
-2.15446e-05
7.41649e-06
-1.96699e-05
5.44345e-06
-1.7501e-05
3.72502e-06
-1.51073e-05
2.31981e-06
-1.25424e-05
1.25576e-06
-9.85542e-06
5.32317e-07
-7.09328e-06
1.27469e-07
-4.30368e-06
-1.52682e-06
-3.03765e-05
6.11664e-05
5.37851e-05
-1.1484e-05
4.21035e-05
3.16406e-06
2.53043e-05
1.39583e-05
1.13107e-05
2.14023e-05
1.64727e-07
2.60255e-05
-8.26784e-06
2.83418e-05
-1.42847e-05
2.88263e-05
-1.82491e-05
2.79059e-05
-2.05469e-05
2.59575e-05
-2.15476e-05
2.33085e-05
-2.15807e-05
2.02392e-05
-2.09199e-05
1.69854e-05
-1.97763e-05
1.37414e-05
-1.83005e-05
1.06622e-05
-1.65907e-05
7.86814e-06
-1.47069e-05
5.44505e-06
-1.26842e-05
3.45012e-06
-1.05474e-05
1.91201e-06
-8.31731e-06
8.37223e-07
-6.01849e-06
2.10602e-07
-3.67706e-06
-1.31622e-06
7.1755e-07
4.10024e-05
1.94464e-05
1.62869e-05
2.65342e-05
2.76791e-05
1.39121e-05
3.53872e-05
3.60251e-06
3.99574e-05
-4.40544e-06
4.19417e-05
-1.02521e-05
4.18651e-05
-1.42081e-05
4.02092e-05
-1.65932e-05
3.74017e-05
-1.77394e-05
3.38131e-05
-1.7959e-05
2.97559e-05
-1.75235e-05
2.54875e-05
-1.66515e-05
2.12159e-05
-1.55048e-05
1.71057e-05
-1.41903e-05
1.32854e-05
-1.27704e-05
9.8522e-06
-1.12738e-05
6.87852e-06
-9.71057e-06
4.41314e-06
-8.08205e-06
2.48683e-06
-6.391e-06
1.11245e-06
-4.64411e-06
2.88626e-07
-2.85323e-06
-1.02759e-06
2.65532e-05
2.40585e-05
-9.60927e-06
3.89555e-05
1.41319e-05
4.72778e-05
5.58981e-06
5.20822e-05
-1.20188e-06
5.396e-05
-6.2832e-06
5.35008e-05
-9.79296e-06
5.12583e-05
-1.19656e-05
4.77315e-05
-1.30663e-05
4.33516e-05
-1.33595e-05
3.84769e-05
-1.30843e-05
3.33939e-05
-1.24404e-05
2.83235e-05
-1.15811e-05
2.34313e-05
-1.06125e-05
1.88397e-05
-9.59876e-06
1.46384e-05
-8.56912e-06
1.08941e-05
-7.52943e-06
7.65554e-06
-6.47201e-06
4.95939e-06
-5.3859e-06
2.83121e-06
-4.26283e-06
1.28914e-06
-3.10203e-06
3.43361e-07
-1.90746e-06
-6.84228e-07
4.53014e-05
1.07437e-05
-3.19866e-05
5.42819e-05
5.15137e-06
5.94003e-05
4.71438e-07
6.12827e-05
-3.08425e-06
6.05794e-05
-5.57986e-06
5.79256e-05
-7.13919e-06
5.3899e-05
-7.93901e-06
4.89974e-05
-8.16475e-06
4.36271e-05
-7.98916e-06
3.81017e-05
-7.55894e-06
3.26501e-05
-6.98888e-06
2.74301e-05
-6.36107e-06
2.2545e-05
-5.72737e-06
1.806e-05
-5.11384e-06
1.40175e-05
-4.52654e-06
1.04461e-05
-3.95805e-06
7.36831e-06
-3.39425e-06
4.80282e-06
-2.8204e-06
2.76648e-06
-2.22649e-06
1.27498e-06
-1.61054e-06
3.45116e-07
-9.7759e-07
-3.39113e-07
5.1769e-05
2.35085e-06
-4.33762e-05
5.65222e-05
3.98214e-07
5.8126e-05
-1.13238e-06
5.72263e-05
-2.18459e-06
5.44693e-05
-2.82286e-06
5.04538e-05
-3.12368e-06
4.56899e-05
-3.17504e-06
4.05833e-05
-3.0582e-06
3.54351e-05
-2.84097e-06
3.04514e-05
-2.5752e-06
2.57599e-05
-2.29742e-06
2.14297e-05
-2.03081e-06
1.74898e-05
-1.78756e-06
1.39471e-05
-1.57112e-06
1.07989e-05
-1.37828e-06
8.04211e-06
-1.20128e-06
5.67784e-06
-1.02998e-06
3.7117e-06
-8.54254e-07
2.152e-06
-6.66799e-07
1.00718e-06
-4.65711e-07
2.84093e-07
-2.54504e-07
-5.502e-08
3.41232e-05
-3.17747e-05
3.45199e-05
3.33864e-05
3.1201e-05
2.83774e-05
2.52531e-05
2.20774e-05
1.90185e-05
1.61768e-05
1.36008e-05
1.13026e-05
9.27094e-06
7.48254e-06
5.91057e-06
4.53147e-06
3.32939e-06
2.29866e-06
1.44373e-06
7.7633e-07
3.1013e-07
5.52682e-08
0.000299751
2.49123e-05
1.81153e-06
-0.000326475
0.000274496
2.34047e-05
1.85028e-06
0.000250621
2.19949e-05
1.88042e-06
0.000228046
2.0672e-05
1.90279e-06
0.000206697
1.94307e-05
1.91866e-06
0.000186501
1.82668e-05
1.9291e-06
0.00016739
1.71754e-05
1.93484e-06
0.000149302
1.61516e-05
1.93635e-06
0.000132178
1.5191e-05
1.93379e-06
0.000115961
1.42893e-05
1.92696e-06
0.000100604
1.34419e-05
1.9151e-06
8.60655e-05
1.26423e-05
1.89654e-06
7.2319e-05
1.18783e-05
1.86816e-06
5.93667e-05
1.11276e-05
1.82474e-06
4.72534e-05
1.03544e-05
1.75893e-06
3.608e-05
9.51137e-06
1.66198e-06
2.60083e-05
8.54628e-06
1.52541e-06
1.72516e-05
7.41362e-06
1.34317e-06
1.00522e-05
6.08594e-06
1.1134e-06
4.65079e-06
4.56207e-06
8.39374e-07
1.25239e-06
2.86908e-06
5.29314e-07
1.05735e-06
1.95048e-07
0.000299325
5.15614e-05
-0.000325974
0.000274138
4.85918e-05
0.000250321
4.58112e-05
0.000227798
4.31957e-05
0.000206492
4.07363e-05
0.000186333
3.84256e-05
0.000167255
3.62542e-05
0.000149193
3.42131e-05
0.00013209
3.22936e-05
0.000115893
3.04872e-05
0.000100551
2.87839e-05
8.60236e-05
2.71693e-05
7.22864e-05
2.56155e-05
5.93412e-05
2.40728e-05
4.72332e-05
2.24624e-05
3.6064e-05
2.06805e-05
2.5996e-05
1.86143e-05
1.72427e-05
1.61669e-05
1.00467e-05
1.32819e-05
4.64822e-06
9.96055e-06
1.25178e-06
6.26552e-06
2.30912e-06
0.000298102
7.80131e-05
-0.000324554
0.000273086
7.36083e-05
0.000249416
6.94814e-05
0.000227019
6.55924e-05
0.000205824
6.1931e-05
0.000185763
5.8487e-05
0.000166769
5.52475e-05
0.000148783
5.21996e-05
0.000131746
4.93306e-05
0.000115606
4.66277e-05
0.000100313
4.40764e-05
8.58287e-05
4.16536e-05
7.21276e-05
3.93166e-05
5.92129e-05
3.69875e-05
4.71305e-05
3.45447e-05
3.59833e-05
3.18277e-05
2.59343e-05
2.86633e-05
1.71983e-05
2.49029e-05
1.0018e-05
2.04623e-05
4.63306e-06
1.53455e-05
1.24688e-06
9.6517e-06
3.556e-06
0.000296408
0.000104163
-0.000322557
0.000271654
9.83619e-05
0.000248207
9.29282e-05
0.000226002
8.77981e-05
0.00020497
8.29622e-05
0.000185049
7.84084e-05
0.000166176
7.41208e-05
0.000148292
7.00834e-05
0.000131342
6.62798e-05
0.000115276
6.26938e-05
0.000100047
5.93059e-05
8.5615e-05
5.60855e-05
7.19573e-05
5.29743e-05
5.90776e-05
4.98672e-05
4.70237e-05
4.65987e-05
3.58993e-05
4.29521e-05
2.587e-05
3.86926e-05
1.71514e-05
3.36216e-05
9.98743e-06
2.76262e-05
4.61699e-06
2.07159e-05
1.24177e-06
1.30269e-05
4.79777e-06
0.000294419
0.000129921
-0.000320177
0.000270003
0.000122778
0.000246841
0.00011609
0.000224878
0.000109761
0.000204053
0.000103788
0.000184306
9.81553e-05
0.00016558
9.28464e-05
0.000147821
8.78425e-05
0.000130976
8.31245e-05
0.000114997
7.86729e-05
9.9839e-05
7.44642e-05
8.54643e-05
7.04602e-05
7.18507e-05
6.65879e-05
5.90037e-05
6.27142e-05
4.69721e-05
5.86303e-05
3.58623e-05
5.40619e-05
2.58417e-05
4.87131e-05
1.71297e-05
4.23336e-05
9.97152e-06
3.47844e-05
4.60757e-06
2.60799e-05
1.23816e-06
1.63963e-05
6.03593e-06
0.000292532
0.000155232
-0.000317843
0.000268498
0.000146812
0.000245654
0.000138934
0.000223957
0.000131459
0.000203354
0.000124391
0.000183791
0.000117718
0.000165218
0.00011142
0.000147582
0.000105478
0.000130837
9.98694e-05
0.000114937
9.45736e-05
9.98381e-05
8.9563e-05
8.5506e-05
8.47923e-05
7.19194e-05
8.01745e-05
5.9085e-05
7.55486e-05
4.7053e-05
7.06623e-05
3.59328e-05
6.51821e-05
2.58952e-05
5.87507e-05
1.71641e-05
5.10647e-05
9.98929e-06
4.19593e-05
4.61357e-06
3.14556e-05
1.23866e-06
1.97712e-05
7.27459e-06
0.000290961
0.000180057
-0.000315786
0.000267335
0.000170438
0.000244824
0.000161444
0.0002234
0.000152882
0.000203019
0.000144772
0.000183637
0.000137101
0.000165206
0.00012985
0.000147683
0.000123001
0.000131023
0.000116529
0.000115184
0.000110413
0.000100126
0.000104621
8.58145e-05
9.91037e-05
7.22308e-05
9.37583e-05
5.93812e-05
8.83982e-05
4.73188e-05
8.27247e-05
3.61538e-05
7.63471e-05
2.60643e-05
6.88401e-05
1.72787e-05
5.98503e-05
1.00558e-05
4.91822e-05
4.64291e-06
3.68685e-05
1.24548e-06
2.31687e-05
8.52007e-06
0.000289881
0.000204372
-0.000314196
0.000266676
0.000193642
0.000244505
0.000183615
0.000223355
0.000174033
0.00020319
0.000164937
0.000183974
0.000156316
0.00016567
0.000148155
0.000148237
0.000140433
0.000131637
0.00013313
0.00011583
0.000126219
0.000100781
0.000119671
8.64569e-05
0.000113427
7.28394e-05
0.000107376
5.99374e-05
0.0001013
4.78022e-05
9.48599e-05
3.65511e-05
8.75982e-05
2.63644e-05
7.90269e-05
1.74839e-05
6.87307e-05
1.01746e-05
5.64915e-05
4.69627e-06
4.23468e-05
1.25808e-06
2.66069e-05
9.77815e-06
0.000289422
0.000228166
-0.000313216
0.000266637
0.000216427
0.000244792
0.00020546
0.000223893
0.000194933
0.000203919
0.000184911
0.000184844
0.000175391
0.000166638
0.000166361
0.000149268
0.000157803
0.000132699
0.000149698
0.000116896
0.000142022
0.000101825
0.000134741
8.74571e-05
0.000127796
7.37731e-05
0.00012106
6.07799e-05
0.000114293
4.85329e-05
0.000107107
3.71482e-05
9.89829e-05
2.68193e-05
8.93558e-05
1.77948e-05
7.77552e-05
1.03592e-05
6.3927e-05
4.78062e-06
4.79255e-05
1.28e-06
3.01075e-05
1.10582e-05
0.00028962
0.00025143
-0.000312884
0.000267256
0.000238792
0.000245735
0.000226981
0.00022508
0.000215588
0.00020528
0.000204711
0.00018632
0.000194351
0.00016818
0.000184501
0.000150834
0.000175149
0.000134254
0.000166278
0.000118411
0.000157865
0.000103274
0.000149879
8.8815e-05
0.000142255
7.50156e-05
0.000134859
6.18846e-05
0.000127424
4.94748e-05
0.000119517
3.79106e-05
0.000110547
2.73901e-05
9.98763e-05
1.8182e-05
8.69634e-05
1.05827e-05
7.15263e-05
4.88047e-06
5.36277e-05
1.30342e-06
3.36845e-05
1.23616e-05
0.000290465
0.000274161
-0.000313196
0.000268493
0.000260764
0.000247258
0.000248216
0.000226808
0.000236039
0.000207148
0.000224371
0.000188275
0.000213224
0.000170177
0.0002026
0.000152833
0.000192493
0.000136221
0.00018289
0.000120315
0.000173771
0.000105088
0.000165106
9.05126e-05
0.00015683
7.65723e-05
0.000148799
6.32714e-05
0.000140725
5.06643e-05
0.000132124
3.88758e-05
0.000122336
2.81187e-05
0.000110633
1.86766e-05
9.64054e-05
1.08729e-05
7.93299e-05
5.0124e-06
5.94883e-05
1.33774e-06
3.73592e-05
1.36993e-05
0.000291972
0.000296337
-0.000314148
0.000270411
0.000282325
0.000249471
0.000269156
0.000229211
0.000256298
0.000209658
0.000243924
0.000190825
0.000232057
0.000172714
0.000220712
0.000155314
0.000209893
0.00013861
0.000199594
0.000122581
0.0001898
0.000107204
0.000180483
9.24547e-05
0.000171579
7.83151e-05
0.000162939
6.47906e-05
0.00015425
5.19349e-05
0.00014498
3.98808e-05
0.00013439
2.88527e-05
0.000121661
1.91575e-05
0.000106101
1.11391e-05
8.73484e-05
5.12307e-06
6.55042e-05
1.36024e-06
4.1122e-05
1.50595e-05
0.000293951
0.000317979
-0.000315594
0.000272717
0.000303559
0.00025202
0.000289852
0.000231925
0.000276393
0.000212468
0.000263381
0.000193673
0.000250852
0.000175548
0.000238836
0.000158092
0.000227349
0.000141294
0.000216392
0.000125139
0.000205955
0.000109608
0.000196014
9.46777e-05
0.00018651
8.03298e-05
0.000177287
6.65664e-05
0.000168013
5.34395e-05
0.000158106
4.10847e-05
0.000146745
2.97418e-05
0.000133004
1.97427e-05
0.0001161
1.14653e-05
9.56258e-05
5.26131e-06
7.17082e-05
1.39256e-06
4.49908e-05
1.64521e-05
0.000296279
0.000338882
-0.000317182
0.000275466
0.000324372
0.000255026
0.000310293
0.000235061
0.000296358
0.000215644
0.000282798
0.00019682
0.000269676
0.000178612
0.000257044
0.00016103
0.000244931
0.000144073
0.000233349
0.000127731
0.000222297
0.000111987
0.000211758
9.6822e-05
0.000201675
8.22167e-05
0.000191892
6.81725e-05
0.000182058
5.47415e-05
0.000171537
4.20669e-05
0.000159419
3.04079e-05
0.000144663
2.01277e-05
0.00012638
1.16353e-05
0.000104118
5.30206e-06
7.80414e-05
1.38649e-06
4.89064e-05
1.78386e-05
0.000298899
0.00035912
-0.000319137
0.000278347
0.000344925
0.000258151
0.000330489
0.000238344
0.000316165
0.00021901
0.000302132
0.000200202
0.000288485
0.00018195
0.000275296
0.000164271
0.000262609
0.000147173
0.000250447
0.000130651
0.000238819
0.000114692
0.000227716
9.92788e-05
0.000217088
8.43904e-05
0.00020678
7.00258e-05
0.000196422
5.62394e-05
0.000185324
4.31858e-05
0.000172473
3.1149e-05
0.0001567
2.05272e-05
0.000137002
1.17685e-05
0.000112877
5.27592e-06
8.4534e-05
1.32312e-06
5.28592e-05
1.91617e-05
1.43715e-05
0.000362084
-1.73358e-05
1.14058e-05
0.00034789
8.60242e-06
0.000333293
5.86389e-06
0.000318903
3.19521e-06
0.0003048
5.8746e-07
0.000291093
-1.96111e-06
0.000277845
-4.44726e-06
0.000265095
-6.86495e-06
0.000252865
-9.20341e-06
0.000241158
-1.14379e-05
0.00022995
-1.35063e-05
0.000219157
-1.52755e-05
0.00020855
-1.65188e-05
0.000197665
-1.69391e-05
0.000185744
-1.62573e-05
0.000171791
-1.43424e-05
0.000154785
-1.13255e-05
0.000133985
-7.64331e-06
0.000109195
-3.98509e-06
8.08758e-05
-1.17191e-06
5.0046e-05
1.79898e-05
8.42513e-06
0.000365348
-1.16886e-05
5.37475e-06
0.000350941
2.42188e-06
0.000336245
-4.24941e-07
0.00032175
-3.1561e-06
0.000307531
-5.77674e-06
0.000293713
-8.28518e-06
0.000280353
-1.06785e-05
0.000267489
-1.2951e-05
0.000255137
-1.50893e-05
0.000243296
-1.70583e-05
0.000231919
-1.87746e-05
0.000220873
-2.00771e-05
0.000209852
-2.07204e-05
0.000198309
-2.04175e-05
0.000185441
-1.89393e-05
0.000170313
-1.62342e-05
0.00015208
-1.25196e-05
0.00013027
-8.29618e-06
0.000104971
-4.27983e-06
7.68594e-05
-1.26869e-06
4.70348e-05
1.67211e-05
2.1112e-06
0.000368758
-5.52207e-06
-9.7752e-07
0.000354029
-3.96116e-06
0.000339229
-6.79027e-06
0.000324579
-9.4706e-06
0.000310212
-1.20043e-05
0.000296247
-1.43901e-05
0.000282739
-1.66258e-05
0.000269724
-1.87047e-05
0.000257216
-2.06075e-05
0.000245199
-2.22833e-05
0.000233595
-2.36219e-05
0.000222212
-2.4433e-05
0.000210663
-2.44556e-05
0.000198331
-2.34219e-05
0.000184408
-2.1159e-05
0.00016805
-1.77011e-05
0.000148622
-1.33514e-05
0.000125921
-8.67294e-06
0.000100293
-4.39532e-06
7.25818e-05
-1.28152e-06
4.3921e-05
1.54396e-05
-4.54213e-06
0.000372135
1.16591e-06
-7.59496e-06
0.000357082
-1.051e-05
0.000342144
-1.32398e-05
0.000327309
-1.57981e-05
0.00031277
-1.81833e-05
0.000298632
-2.03947e-05
0.000284951
-2.24299e-05
0.000271759
-2.42787e-05
0.000259065
-2.59114e-05
0.000246831
-2.72552e-05
0.000234939
-2.81701e-05
0.000223127
-2.84375e-05
0.000210931
-2.77927e-05
0.000197686
-2.59984e-05
0.000182613
-2.29542e-05
0.000165006
-1.8784e-05
0.000144452
-1.3877e-05
0.000121014
-8.84115e-06
9.5257e-05
-4.40095e-06
6.81416e-05
-1.2603e-06
4.07804e-05
1.41793e-05
-1.16555e-05
0.000375324
8.4659e-06
-1.45581e-05
0.000359985
-1.72955e-05
0.000344882
-1.98373e-05
0.000329851
-2.21967e-05
0.000315129
-2.43697e-05
0.000300805
-2.63553e-05
0.000286936
-2.81482e-05
0.000273552
-2.97313e-05
0.000260648
-3.10577e-05
0.000248158
-3.20281e-05
0.000235909
-3.24689e-05
0.000223567
-3.21417e-05
0.000210603
-3.07863e-05
0.000196331
-2.82151e-05
0.000180042
-2.44052e-05
0.000161196
-1.95767e-05
0.000139623
-1.41888e-05
0.000115626
-8.88149e-06
8.99497e-05
-4.34922e-06
6.36093e-05
-1.22625e-06
3.76574e-05
1.2953e-05
-1.93647e-05
0.000378183
1.65064e-05
-2.19902e-05
0.00036261
-2.44436e-05
0.000347335
-2.67094e-05
0.000332116
-2.87948e-05
0.000317215
-3.06936e-05
0.000302704
-3.24022e-05
0.000288645
-3.39096e-05
0.00027506
-3.51858e-05
0.000261924
-3.61613e-05
0.000249133
-3.67035e-05
0.000236452
-3.66091e-05
0.000223473
-3.56235e-05
0.000209618
-3.35113e-05
0.000194219
-3.01413e-05
0.000176672
-2.55841e-05
0.000156639
-2.01439e-05
0.000134183
-1.43456e-05
0.000109827
-8.83309e-06
8.44372e-05
-4.26189e-06
5.90381e-05
-1.18448e-06
3.458e-05
1.17686e-05
-2.77787e-05
0.000380556
2.54054e-05
-2.99901e-05
0.000364822
-3.20499e-05
0.000349395
-3.39492e-05
0.000334016
-3.56857e-05
0.000318951
-3.72493e-05
0.000304268
-3.86305e-05
0.000290026
-3.98074e-05
0.000276237
-4.07308e-05
0.000262848
-4.13007e-05
0.000249703
-4.13497e-05
0.000236501
-4.06448e-05
0.000222768
-3.89324e-05
0.000207905
-3.60097e-05
0.000191296
-3.18246e-05
0.000172487
-2.65349e-05
0.000151349
-2.05337e-05
0.000128182
-1.43831e-05
0.000103677
-8.72407e-06
7.87782e-05
-4.15146e-06
5.44655e-05
-1.13907e-06
3.15676e-05
1.06295e-05
-3.70084e-05
0.000382305
3.52596e-05
-3.86795e-05
0.000366493
-4.02438e-05
0.000350959
-4.16909e-05
0.000335463
-4.30072e-05
0.000320268
-4.41763e-05
0.000305437
-4.51781e-05
0.000291028
-4.59741e-05
0.000277033
-4.64874e-05
0.000263361
-4.65823e-05
0.000249798
-4.60536e-05
0.000235972
-4.46497e-05
0.000221364
-4.21264e-05
0.000205382
-3.8338e-05
0.000187508
-3.33132e-05
0.000167462
-2.73098e-05
0.000145345
-2.07864e-05
0.000121659
-1.43378e-05
9.72281e-05
-8.5738e-06
7.30142e-05
-4.02881e-06
4.99205e-05
-1.09214e-06
2.86309e-05
9.53735e-06
-4.70666e-05
0.000383315
4.60558e-05
-4.80923e-05
0.000367518
-4.90747e-05
0.000351942
-4.99963e-05
0.000336384
-5.08315e-05
0.000321103
-5.15536e-05
0.000306159
-5.21269e-05
0.000291601
-5.24878e-05
0.000277394
-5.25249e-05
0.000263398
-5.20603e-05