/*--------------------------------*- C++ -*----------------------------------*\
| =========                 |                                                 |
| \\      /  F ield         | OpenFOAM Extend Project: Open source CFD        |
|  \\    /   O peration     | Version:  1.6-ext                               |
|   \\  /    A nd           | Web:      www.extend-project.de                 |
|    \\/     M anipulation  |                                                 |
\*---------------------------------------------------------------------------*/
FoamFile
{
    version     2.0;
    format      ascii;
    class       volVectorField;
    location    "0.2";
    object      U;
}
// * * * * * * * * * * * * * * * * * * * * * * * * * * * * * * * * * * * * * //

dimensions      [0 1 -1 0 0 0 0];

internalField   nonuniform List<vector> 
20940
(
(1.74168 0.430501 -6.80599e-21)
(1.7921 0.441287 1.02161e-21)
(1.84027 0.451976 0)
(1.8851 0.461955 1.59934e-21)
(1.92575 0.471178 -2.31715e-21)
(1.96012 0.478505 6.07165e-22)
(1.98482 0.48264 1.77251e-21)
(1.99491 0.481597 0)
(1.98417 0.473224 0)
(1.94614 0.455526 8.43726e-21)
(1.87549 0.427294 -4.78504e-21)
(1.76961 0.388585 6.57556e-21)
(1.62967 0.340941 -1.96302e-24)
(1.46079 0.287208 2.30727e-24)
(1.27115 0.231011 0)
(1.0705 0.176083 -6.02668e-21)
(0.868497 0.125696 6.33126e-21)
(0.673459 0.0823203 0)
(0.491639 0.0474939 0)
(0.327048 0.0218778 0)
(0.181661 0.00593664 3.97441e-21)
(0.0558023 0.000374219 4.28219e-25)
(1.75623 0.388504 1.3613e-20)
(1.80605 0.398591 1.85973e-20)
(1.85349 0.40796 -4.16462e-21)
(1.89705 0.41646 4.60766e-21)
(1.9352 0.423645 0)
(1.96497 0.428344 -2.29505e-21)
(1.98205 0.4291 4.97771e-21)
(1.98076 0.424003 3.89009e-21)
(1.95479 0.411212 0)
(1.89845 0.389351 -3.98907e-21)
(1.80816 0.358043 -8.91599e-22)
(1.68369 0.318191 5.64822e-21)
(1.52874 0.271951 1.61581e-20)
(1.3504 0.222362 -1.7232e-20)
(1.15788 0.172768 0)
(0.960893 0.126258 -3.35871e-20)
(0.768268 0.0852745 2.39085e-20)
(0.587036 0.0514635 0)
(0.422092 0.0256727 0)
(0.276267 0.00806767 0)
(0.150678 -0.00120403 -3.95875e-21)
(0.0451632 -0.00160762 6.25669e-21)
(1.76814 0.342564 -2.80314e-20)
(1.81695 0.352134 -1.20247e-20)
(1.86305 0.360414 0)
(1.90441 0.367609 -3.87032e-21)
(1.93869 0.372905 2.34194e-21)
(1.96196 0.375133 4.88317e-22)
(1.96909 0.372785 -1.01998e-20)
(1.954 0.364173 2.65317e-21)
(1.91079 0.347912 0)
(1.83509 0.323322 0)
(1.72548 0.290794 2.19131e-20)
(1.58425 0.251867 -3.61692e-20)
(1.41732 0.209002 0)
(1.23317 0.165114 3.50154e-20)
(1.04139 0.123046 -5.56357e-20)
(0.851137 0.0851585 1.08274e-20)
(0.670088 0.0531159 0)
(0.503911 0.0278755 1.29626e-20)
(0.356217 0.0097625 -2.5776e-20)
(0.228803 -0.00140101 1.45006e-20)
(0.122075 -0.00568125 -5.07648e-20)
(0.035486 -0.0026775 2.3593e-20)
(1.7783 0.293538 -2.71173e-20)
(1.82564 0.302698 0)
(1.86963 0.31002 0)
(1.90758 0.316016 7.34279e-21)
(1.93622 0.319548 -1.6444e-21)
(1.95072 0.319518 0)
(1.94533 0.314492 -2.40716e-21)
(1.91405 0.303142 -5.62477e-21)
(1.85192 0.284635 2.12513e-20)
(1.75645 0.258968 0)
(1.62865 0.227153 9.51089e-21)
(1.47318 0.191101 1.2335e-20)
(1.29771 0.153271 -1.54582e-20)
(1.1115 0.116206 -1.76302e-21)
(0.923884 0.0821238 5.32835e-20)
(0.743041 0.0526614 0)
(0.575315 0.0288111 2.04118e-20)
(0.425019 0.0109933 1.18079e-20)
(0.294602 -0.000837596 1.16566e-20)
(0.18498 -0.00707585 9.5373e-22)
(0.0959891 -0.00790983 -6.96094e-21)
(0.0267897 -0.00300904 -5.85586e-21)
(1.78606 0.242139 -2.20994e-20)
(1.83148 0.250836 -2.51504e-21)
(1.87243 0.257235 6.44716e-21)
(1.90555 0.262119 -1.27627e-20)
(1.92657 0.264096 0)
(1.92992 0.262218 0)
(1.90963 0.255241 -1.02637e-20)
(1.86027 0.242282 0)
(1.77842 0.223066 0)
(1.66384 0.198159 0)
(1.51997 0.168965 -4.14328e-20)
(1.35352 0.137484 4.36627e-20)
(1.17328 0.105918 1.18571e-20)
(0.988638 0.07629 1.43345e-20)
(0.80817 0.050164 0)
(0.638822 0.0285386 5.4077e-20)
(0.485553 0.0118744 -5.89898e-20)
(0.351417 0.000208246 4.2532e-20)
(0.237857 -0.00674081 -5.59033e-20)
(0.145078 -0.00948 1.23014e-20)
(0.0724861 -0.0082481 0)
(0.0190458 -0.00273638 0)
(1.79048 0.189212 4.57703e-20)
(1.83341 0.197394 1.54123e-21)
(1.87029 0.202949 -3.43527e-20)
(1.89701 0.206879 6.38568e-21)
(1.90839 0.207651 6.23169e-21)
(1.89841 0.204548 -2.07887e-20)
(1.8613 0.196604 8.75233e-21)
(1.79281 0.183406 0)
(1.69149 0.165155 -2.30364e-20)
(1.5595 0.1428 0)
(1.40253 0.117882 -5.67934e-20)
(1.22877 0.0922358 8.53046e-20)
(1.04751 0.0676415 -7.28392e-20)
(0.867677 0.045545 1.20517e-20)
(0.696758 0.0269177 0)
(0.540342 0.0122449 -1.73097e-20)
(0.402066 0.00160466 -1.92051e-20)
(0.283875 -0.00521173 3.80832e-20)
(0.18639 -0.00861128 0)
(0.109265 -0.00913749 6.47799e-20)
(0.0515973 -0.00703169 -4.52737e-20)
(0.0122401 -0.00197922 3.86572e-20)
(1.79144 0.135317 0)
(1.83122 0.142816 2.97131e-20)
(1.86281 0.147594 -2.50045e-21)
(1.88146 0.150839 6.50852e-22)
(1.88121 0.150986 -7.18252e-22)
(1.856 0.147584 1.87907e-20)
(1.80079 0.139966 0)
(1.71299 0.128112 1.66681e-20)
(1.59341 0.112547 2.29041e-20)
(1.44656 0.0943709 -2.99409e-20)
(1.27991 0.0750239 -3.03432e-21)
(1.10256 0.056001 1.63764e-20)
(0.923681 0.0385842 4.37328e-20)
(0.751305 0.0236809 4.89696e-20)
(0.591653 0.0117799 -5.44028e-20)
(0.448963 0.00299641 0)
(0.325681 -0.0028355 -1.49958e-21)
(0.222825 -0.00605727 -3.56246e-20)
(0.140365 -0.00712074 3.71063e-20)
(0.0775494 -0.00655415 -2.07967e-20)
(0.0332709 -0.0045736 -4.23808e-20)
(0.00633401 -0.000845507 4.36382e-20)
(1.78757 0.0813517 0)
(1.82349 0.0882021 0)
(1.84868 0.0925055 6.01381e-21)
(1.85779 0.0955245 -9.19645e-21)
(1.84437 0.0958123 0)
(1.80273 0.0931838 -1.27777e-20)
(1.72906 0.0872524 -2.65156e-20)
(1.62278 0.0782677 2.85717e-20)
(1.48705 0.0668796 0)
(1.32845 0.0541171 0)
(1.15572 0.041137 0)
(0.978229 0.0290004 -1.88875e-20)
(0.804564 0.0185025 -2.22775e-20)
(0.641619 0.0101031 2.07956e-20)
(0.494284 0.00394087 -2.3913e-20)
(0.365545 -0.000103574 -5.56058e-20)
(0.256828 -0.00232547 4.2978e-20)
(0.168402 -0.00311398 -7.99762e-20)
(0.0997455 -0.00291088 1.36584e-19)
(0.0498217 -0.00219885 -7.16596e-20)
(0.0173968 -0.00115664 -1.82519e-20)
(0.00127394 0.000569687 3.17731e-20)
(1.7796 0.0275722 2.90512e-20)
(1.81093 0.0335802 -3.23001e-20)
(1.82855 0.0376726 -4.8549e-21)
(1.82672 0.0410658 9.53885e-21)
(1.79887 0.0425245 7.27309e-21)
(1.74014 0.0420178 -2.39061e-20)
(1.64836 0.0393238 2.23242e-20)
(1.52516 0.0347542 -5.03358e-20)
(1.37591 0.0288701 3.74503e-20)
(1.20883 0.0224408 -2.56076e-20)
(1.03338 0.0162325 2.77125e-20)
(0.858674 0.0108644 -3.3704e-20)
(0.69238 0.00672072 1.67706e-20)
(0.540133 0.00393822 0)
(0.405547 0.00244004 6.9714e-20)
(0.29051 0.00199155 1.50519e-21)
(0.195602 0.0022597 -2.39848e-20)
(0.120508 0.00286914 -5.56086e-20)
(0.0643453 0.00342387 1.47526e-20)
(0.0258853 0.00350279 6.65527e-20)
(0.003826 0.00296638 -6.70522e-20)
(-0.00300146 0.00218265 -7.78699e-21)
(1.76538 -0.0248623 -3.75215e-20)
(1.79154 -0.0193426 -2.40094e-20)
(1.80091 -0.0148104 1.35565e-20)
(1.78751 -0.0102896 5.56276e-22)
(1.74492 -0.00665142 9.61497e-21)
(1.66947 -0.00386471 3.17671e-21)
(1.5609 -0.00207799 -6.85528e-20)
(1.42307 -0.00110424 2.71052e-20)
(1.26331 -0.000647356 3.96632e-20)
(1.09099 -0.000329534 -8.98537e-20)
(0.915766 0.000181333 5.06176e-20)
(0.746152 0.00110318 0)
(0.588692 0.00250846 0)
(0.447774 0.00433141 -1.74946e-20)
(0.32586 0.00639485 1.92605e-20)
(0.223909 0.00844259 -4.50554e-20)
(0.141828 0.0101713 7.28899e-20)
(0.078858 0.0112623 1.37024e-20)
(0.0338584 0.011388 -1.46932e-20)
(0.00547725 0.0101967 -6.02444e-20)
(-0.00761942 0.00758476 7.8794e-20)
(-0.00655895 0.00392367 0)
(1.7476 -0.0765018 -3.62306e-20)
(1.76806 -0.0719333 4.64328e-20)
(1.76846 -0.0666133 -1.6572e-20)
(1.74284 -0.0601446 5.97206e-21)
(1.68538 -0.0530275 -1.30753e-20)
(1.59392 -0.0454514 2.46836e-20)
(1.47021 -0.0377044 -2.30422e-20)
(1.3202 -0.0299652 8.34448e-20)
(1.1528 -0.0223621 -3.28558e-20)
(0.978057 -0.0149824 0)
(0.805393 -0.00790779 0)
(0.642449 -0.00123623 -2.71114e-20)
(0.494602 0.00490809 2.91295e-20)
(0.36507 0.010373 1.7283e-21)
(0.255319 0.0149804 -1.90959e-20)
(0.165552 0.0185293 0)
(0.0951568 0.0208009 -4.39475e-20)
(0.0430472 0.0215685 4.61583e-20)
(0.00790235 0.0205936 -5.1053e-20)
(-0.0117089 0.0176024 5.30886e-20)
(-0.0171352 0.0125267 0)
(-0.00946623 0.00573307 0)
(1.72177 -0.125118 0)
(1.73663 -0.120594 -2.2408e-20)
(1.72847 -0.113712 0)
(1.69141 -0.104654 0)
(1.62038 -0.0933503 0)
(1.51481 -0.0802689 -1.37818e-20)
(1.37848 -0.0659037 2.06626e-20)
(1.2192 -0.0509323 -2.72075e-20)
(1.04706 -0.0359989 0)
(0.872368 -0.0216947 0)
(0.704055 -0.00849096 -2.03345e-20)
(0.548766 0.0032607 0)
(0.410751 0.0133164 0)
(0.292203 0.0215109 1.54355e-20)
(0.193769 0.0277277 0)
(0.115069 0.0318714 -1.6844e-20)
(0.0551071 0.0338469 3.93854e-20)
(0.0125706 0.0335506 -4.14123e-20)
(-0.0139829 0.0308551 -2.16149e-20)
(-0.0260366 0.0255796 0)
(-0.0249539 0.0176996 1.22693e-20)
(-0.0118045 0.00757684 -3.40387e-20)
(1.69517 -0.173798 -3.1203e-20)
(1.70385 -0.170797 6.15331e-21)
(1.68685 -0.162125 6.33341e-21)
(1.6384 -0.149576 0)
(1.5546 -0.132658 0)
(1.43646 -0.112522 0)
(1.28967 -0.090124 -1.92978e-20)
(1.12357 -0.0668383 1.60781e-21)
(0.94902 -0.0439084 5.44038e-22)
(0.776242 -0.0224214 0)
(0.613422 -0.0031726 4.04884e-20)
(0.46617 0.0133171 -2.15775e-20)
(0.337696 0.0267626 0)
(0.22932 0.0370494 2.47819e-20)
(0.141056 0.0441724 0)
(0.0721026 0.0481828 1.66662e-20)
(0.0212115 0.0491467 -3.52633e-20)
(-0.0130713 0.0471185 3.7121e-20)
(-0.0322618 0.0421154 8.23196e-20)
(-0.0378807 0.0340798 1.13042e-21)
(-0.0313166 0.0230576 -4.70493e-20)
(-0.0136533 0.009429 -2.03922e-20)
(1.65687 -0.215569 3.07818e-20)
(1.66115 -0.212181 -2.18422e-20)
(1.6373 -0.201937 1.12352e-20)
(1.57982 -0.186287 -3.65814e-21)
(1.48602 -0.164292 4.03407e-21)
(1.35841 -0.137556 1.28128e-20)
(1.20437 -0.107514 1.90007e-20)
(1.03444 -0.0762519 2.41232e-20)
(0.85992 -0.0456409 -2.85742e-20)
(0.690725 -0.0172811 3.0535e-20)
(0.534218 0.00769121 1.81503e-20)
(0.395021 0.0285693 -3.84916e-20)
(0.27545 0.0450094 0)
(0.176149 0.0569334 -2.44472e-20)
(0.0966903 0.0644405 2.61355e-20)
(0.0360227 0.0677329 -2.77868e-20)
(-0.00723021 0.0670549 0)
(-0.0345812 0.0626496 0)
(-0.0475777 0.0547188 -1.75558e-21)
(-0.0477693 0.043372 5.88682e-20)
(-0.0365862 0.0287711 -1.00263e-20)
(-0.0151546 0.011357 -2.6913e-20)
(1.6252 -0.263971 3.37403e-20)
(1.62209 -0.262245 -1.82786e-20)
(1.59095 -0.249408 2.02407e-20)
(1.52485 -0.229286 0)
(1.42212 -0.200378 -1.25063e-20)
(1.28657 -0.165163 -2.6819e-20)
(1.12711 -0.125757 1.55738e-20)
(0.955209 -0.08509 8.44048e-22)
(0.782317 -0.0457196 5.65186e-22)
(0.617736 -0.00975169 -3.00131e-20)
(0.467856 0.0213891 -3.20035e-20)
(0.336322 0.0468775 5.26795e-20)
(0.22468 0.0663697 1.82934e-20)
(0.133079 0.0798607 2.10905e-20)
(0.0608327 0.0875713 -5.61013e-22)
(0.00679657 0.0898609 -1.21045e-20)
(-0.0304074 0.0871597 -4.16392e-20)
(-0.0522624 0.0799175 2.98835e-20)
(-0.0602928 0.0685554 -5.09685e-20)
(-0.0560549 0.0534004 1.6432e-20)
(-0.0410267 0.0347981 9.12273e-21)
(-0.0164068 0.0133369 -3.38174e-20)
(1.58017 -0.290909 -2.11271e-20)
(1.56294 -0.290639 -2.54937e-20)
(1.51555 -0.275547 1.03563e-20)
(1.43149 -0.250909 3.26562e-21)
(1.31301 -0.215472 9.52895e-21)
(1.16639 -0.17265 -1.53443e-20)
(1.00247 -0.12536 1.6807e-20)
(0.832817 -0.077309 4.70993e-20)
(0.667663 -0.031524 -1.06142e-19)
(0.514446 0.00964936 2.49331e-22)
(0.377741 0.0447157 0)
(0.259771 0.0728553 0)
(0.161148 0.0937578 -3.6857e-20)
(0.0814989 0.107465 0)
(0.0199091 0.114262 -2.2737e-20)
(-0.0248132 0.114605 1.24914e-20)
(-0.0539991 0.109061 1.37016e-20)
(-0.0690518 0.0982626 -1.53662e-20)
(-0.0714192 0.0828525 3.04915e-20)
(-0.0626086 0.0634125 0)
(-0.0440817 0.040543 -9.2112e-21)
(-0.0170554 0.0150717 0)
(1.52035 -0.33083 0)
(1.47773 -0.322769 -5.3177e-21)
(1.40189 -0.297273 8.46568e-21)
(1.29095 -0.260553 -1.06704e-20)
(1.15265 -0.212877 0)
(0.99592 -0.159186 3.44066e-20)
(0.8325 -0.103282 -1.93597e-20)
(0.672254 -0.049181 0)
(0.52272 0.000320251 5.34999e-20)
(0.388455 0.0433226 2.93496e-20)
(0.271695 0.0788024 -4.57301e-20)
(0.173036 0.106315 3.30093e-20)
(0.0921133 0.125802 5.35267e-20)
(0.0280684 0.137456 -3.78663e-20)
(-0.0201744 0.141649 -1.10129e-20)
(-0.053775 0.138895 4.53081e-20)
(-0.0739308 0.129832 -2.4281e-20)
(-0.0818688 0.115187 -1.39291e-20)
(-0.0788556 0.0957375 4.31702e-20)
(-0.0662244 0.0722405 -3.04551e-20)
(-0.045271 0.0455 3.31131e-20)
(-0.0170827 0.016522 3.31758e-22)
(1.42668 -0.357842 3.32283e-20)
(1.35724 -0.33938 -1.03084e-20)
(1.25601 -0.30244 -3.98884e-21)
(1.1266 -0.254027 -3.37722e-21)
(0.979291 -0.196336 0)
(0.823711 -0.134837 1.56928e-21)
(0.670168 -0.0737069 -2.03852e-20)
(0.525807 -0.016558 0)
(0.395348 0.0343212 -2.70136e-20)
(0.281015 0.0775545 0)
(0.183452 0.11249 5.84574e-22)
(0.102324 0.138906 0)
(0.0368299 0.156848 0)
(-0.0140177 0.166535 0)
(-0.0512419 0.168336 -1.96245e-20)
(-0.0758587 0.162762 0)
(-0.0888791 0.150465 2.34294e-20)
(-0.0913292 0.132231 -2.45736e-20)
(-0.0842747 0.108934 -5.39526e-20)
(-0.0688542 0.0814732 2.13591e-20)
(-0.0461682 0.0508294 7.22478e-21)
(-0.0171289 0.0181738 0)
(1.30351 -0.376342 -1.05378e-20)
(1.21056 -0.346363 8.57458e-21)
(1.09117 -0.297942 1.38108e-21)
(0.952962 -0.239102 -3.94159e-21)
(0.80631 -0.173606 2.49189e-20)
(0.659961 -0.106804 3.72722e-20)
(0.521595 -0.0428018 1.21225e-21)
(0.395693 0.0154889 -2.42221e-20)
(0.284692 0.0663374 0)
(0.189267 0.108847 0)
(0.109145 0.142667 1.499e-20)
(0.043542 0.16774 0)
(-0.00850733 0.184171 -3.20042e-20)
(-0.0479877 0.192173 1.73276e-20)
(-0.0758354 0.192064 -9.08621e-21)
(-0.0929289 0.184291 1.97544e-20)
(-0.10011 0.169455 0)
(-0.0982109 0.148317 0)
(-0.08809 0.12177 1.29061e-20)
(-0.0706666 0.0907811 6.86442e-21)
(-0.0468084 0.0564401 2.0855e-20)
(-0.0171961 0.0200385 -2.94686e-20)
(1.15312 -0.383409 -2.86027e-20)
(1.04323 -0.341965 -7.38654e-21)
(0.914744 -0.283977 4.30393e-21)
(0.776987 -0.21754 2.58406e-21)
(0.638631 -0.147402 -4.34449e-22)
(0.506653 -0.0782978 -1.70327e-20)
(0.385955 -0.0138728 -2.17518e-20)
(0.278953 0.0437128 2.38252e-20)
(0.18654 0.0932546 0)
(0.108512 0.134242 2.67452e-20)
(0.04414 0.166545 -2.88783e-20)
(-0.00754626 0.190212 0)
(-0.0475599 0.205369 1.5963e-20)
(-0.0768652 0.21218 0)
(-0.0963377 0.210873 9.12302e-21)
(-0.106761 0.201778 -2.70594e-20)
(-0.108848 0.185372 9.30142e-21)
(-0.103265 0.162311 0)
(-0.0906706 0.133417 0)
(-0.0717582 0.0996333 2.40487e-20)
(-0.0471414 0.0620685 -2.47607e-20)
(-0.0172342 0.0220477 1.07988e-20)
(0.98195 -0.378768 3.57539e-20)
(0.863255 -0.327723 6.47735e-21)
(0.734101 -0.263405 -4.84607e-21)
(0.603788 -0.192916 5.34844e-21)
(0.478468 -0.121395 -1.36244e-20)
(0.363173 -0.0527381 3.5959e-20)
(0.260552 0.0100688 -6.1698e-20)
(0.171668 0.0654859 1.18066e-20)
(0.0965077 0.112732 0)
(0.0344341 0.151572 0)
(-0.01549 0.182035 3.90079e-20)
(-0.0543185 0.204251 -2.82539e-20)
(-0.0831032 0.218358 -6.79694e-21)
(-0.102826 0.224473 7.06539e-21)
(-0.114358 0.222716 -7.47231e-21)
(-0.118447 0.213264 4.99615e-20)
(-0.115729 0.196416 -9.1426e-21)
(-0.106744 0.17264 -1.86076e-20)
(-0.0919789 0.142592 -2.00934e-20)
(-0.0719091 0.107087 4.20324e-20)
(-0.0469004 0.0671415 -2.69658e-20)
(-0.017103 0.0239981 1.39457e-20)
(0.797649 -0.36331 -2.20227e-20)
(0.677826 -0.305873 9.6857e-21)
(0.554404 -0.23891 0)
(0.435842 -0.167908 0)
(0.325781 -0.0978835 0)
(0.227598 -0.0319381 1.35531e-20)
(0.142422 0.0276011 8.3119e-21)
(0.0705128 0.0796418 2.04077e-20)
(0.0113809 0.123712 -1.02706e-20)
(-0.035824 0.159776 0)
(-0.0721503 0.187993 -1.59964e-21)
(-0.0987238 0.208579 0)
(-0.116663 0.221703 6.86177e-21)
(-0.127013 0.227457 -7.12693e-21)
(-0.130692 0.225864 2.02556e-20)
(-0.128466 0.216939 -7.86676e-21)
(-0.120944 0.200767 -3.07269e-20)
(-0.108591 0.17757 1.60913e-20)
(-0.0917659 0.147755 0)
(-0.0707625 0.111907 -1.8105e-20)
(-0.0457401 0.0708374 1.94823e-20)
(-0.016634 0.0255737 0)
(0.60801 -0.33801 0)
(0.492964 -0.278121 0)
(0.379347 -0.211997 -6.46482e-22)
(0.274625 -0.14365 -5.84302e-22)
(0.18041 -0.0775468 9.58731e-21)
(0.0988584 -0.0161779 -2.42343e-20)
(0.0301865 0.0386794 -2.01643e-21)
(-0.0258091 0.086236 -3.45115e-20)
(-0.0698733 0.126239 2.09349e-20)
(-0.102988 0.158802 8.93342e-21)
(-0.126296 0.184212 -2.15983e-20)
(-0.141012 0.202781 2.15111e-20)
(-0.148348 0.214746 -2.2101e-20)
(-0.149437 0.220208 1.15373e-20)
(-0.145276 0.219127 -3.05039e-23)
(-0.136682 0.211378 -1.49766e-20)
(-0.124283 0.196831 2.82194e-21)
(-0.10852 0.17544 -2.94134e-21)
(-0.0896828 0.147307 0)
(-0.0679447 0.112717 3.17959e-21)
(-0.0433357 0.0721744 4.23933e-21)
(-0.0156731 0.0263747 0)
(0.420868 -0.30401 0)
(0.314274 -0.245617 0)
(0.212632 -0.183268 0)
(0.122355 -0.120163 2.73124e-21)
(0.0437004 -0.0599716 -1.56103e-21)
(-0.0220326 -0.00474876 8.69907e-21)
(-0.0751414 0.0441449 -1.19871e-20)
(-0.116126 0.0861336 7.61192e-21)
(-0.145904 0.121128 1.57377e-20)
(-0.165587 0.149372 -1.69067e-20)
(-0.17643 0.171274 0)
(-0.179755 0.187265 0)
(-0.176874 0.197671 -3.78469e-21)
(-0.169008 0.202638 0)
(-0.15723 0.20211 7.26555e-21)
(-0.142414 0.195865 -6.78365e-21)
(-0.125229 0.183596 5.00202e-21)
(-0.106137 0.165009 1.32073e-20)
(-0.0854176 0.139908 -1.06329e-20)
(-0.0632015 0.108251 -3.18463e-21)
(-0.0394941 0.0701805 0)
(-0.0141288 0.0259807 -1.01871e-20)
(0.244028 -0.261335 -2.28897e-20)
(0.147664 -0.208059 -1.82602e-20)
(0.0588351 -0.152069 -7.8497e-21)
(-0.0172224 -0.0963946 4.38063e-21)
(-0.0809683 -0.0439009 0)
(-0.131732 0.00369167 -3.65872e-21)
(-0.170115 0.0453392 -2.00134e-23)
(-0.19687 0.0806392 0)
(-0.213101 0.109642 -4.87682e-21)
(-0.220083 0.132709 7.325e-21)
(-0.219216 0.150366 2.30287e-21)
(-0.211935 0.163152 -2.48273e-21)
(-0.19963 0.171488 1.14015e-20)
(-0.18358 0.175582 -6.67819e-21)
(-0.164889 0.175396 -2.01e-21)
(-0.144464 0.170664 0)
(-0.123001 0.160972 3.61603e-21)
(-0.100998 0.145849 7.22974e-21)
(-0.0787742 0.12486 -8.24404e-21)
(-0.0564877 0.0976842 0)
(-0.0342319 0.0641196 7.1372e-22)
(-0.0120077 0.0240363 -5.3726e-21)
(0.0852481 -0.211557 2.30967e-20)
(-0.000418589 -0.166105 4.74131e-20)
(-0.0763619 -0.118578 -1.55155e-20)
(-0.138684 -0.0720576 -2.58522e-20)
(-0.188124 -0.0287554 9.70571e-21)
(-0.224556 0.00990748 0)
(-0.248854 0.043162 -4.5666e-22)
(-0.262082 0.0707841 4.12492e-22)
(-0.265595 0.0929635 2.3717e-21)
(-0.260887 0.110173 -3.7776e-21)
(-0.249512 0.123027 2.32416e-21)
(-0.23299 0.132138 -1.22521e-21)
(-0.212735 0.137992 3.56877e-21)
(-0.190002 0.140847 -4.34203e-21)
(-0.165852 0.140696 0)
(-0.141149 0.137279 9.48236e-22)
(-0.116573 0.130149 -6.12204e-21)
(-0.0926368 0.11876 9.44008e-21)
(-0.0697073 0.102557 -4.47988e-21)
(-0.0480153 0.0810538 0)
(-0.0278272 0.053814 -7.13849e-22)
(-0.00944356 0.0203909 5.30433e-22)
(-0.0485241 -0.154089 1.7367e-20)
(-0.122853 -0.118628 2.17556e-21)
(-0.185523 -0.0816798 2.96165e-22)
(-0.233986 -0.0461323 1.69306e-20)
(-0.269121 -0.0136383 -3.74393e-21)
(-0.291396 0.0147207 -3.46854e-21)
(-0.302065 0.0384632 3.7885e-21)
(-0.302594 0.0575635 8.51961e-23)
(-0.294651 0.0723413 0)
(-0.279945 0.0833378 -1.68719e-21)
(-0.260129 0.0911898 -2.1067e-22)
(-0.236713 0.0965061 1.98809e-21)
(-0.211012 0.0997603 -2.9181e-21)
(-0.184134 0.101211 2.09094e-21)
(-0.156983 0.100869 -2.77444e-21)
(-0.130286 0.098504 -9.50705e-22)
(-0.104627 0.0937053 0)
(-0.0804815 0.0859544 3.18156e-22)
(-0.0582317 0.0747129 4.58892e-22)
(-0.0381754 0.0594934 1.15658e-22)
(-0.0207698 0.0398189 -5.37691e-22)
(-0.00667531 0.0151544 4.40058e-22)
(-0.148944 -0.0958334 1.57849e-20)
(-0.209453 -0.0713617 -2.16433e-20)
(-0.256797 -0.0461548 0)
(-0.289879 -0.0225179 9.30343e-21)
(-0.309839 -0.00154868 -6.46173e-21)
(-0.317861 0.016078 0)
(-0.315688 0.0301832 1.44846e-21)
(-0.305195 0.0409299 0)
(-0.288285 0.048717 2.28069e-21)
(-0.26673 0.0540712 -2.76276e-21)
(-0.242089 0.0575488 6.4124e-22)
(-0.215657 0.0596504 0)
(-0.188467 0.0607509 0)
(-0.161322 0.0610511 5.36945e-22)
(-0.134842 0.0605549 0)
(-0.10952 0.0590802 -2.79146e-22)
(-0.0857681 0.0562995 1.44402e-22)
(-0.0639603 0.051803 -3.18499e-22)
(-0.0444364 0.0451769 -9.33664e-22)
(-0.0275043 0.0360742 2.25676e-22)
(-0.0137307 0.0241703 5.06719e-22)
(-0.00404832 0.00911355 -7.41937e-26)
(-0.196342 -0.0360928 1.96569e-20)
(-0.236398 -0.0237765 2.23976e-20)
(-0.263825 -0.0117638 -1.61155e-20)
(-0.27895 -0.0012329 0)
(-0.283313 0.00745024 -2.7389e-21)
(-0.278659 0.0141334 0)
(-0.266972 0.0189309 -1.4532e-21)
(-0.250158 0.0221034 0)
(-0.229922 0.0239852 -6.94964e-22)
(-0.207687 0.0249235 -1.00206e-21)
(-0.184554 0.0252366 1.5683e-21)
(-0.16133 0.025185 0)
(-0.138573 0.0249497 9.09625e-23)
(-0.116659 0.0246165 1.37816e-22)
(-0.0958526 0.0241664 0)
(-0.076369 0.0234784 2.79474e-22)
(-0.0584224 0.0223457 -1.44532e-22)
(-0.0422537 0.0205126 0)
(-0.0281219 0.0177357 2.64819e-23)
(-0.0162776 0.0138612 -7.98964e-23)
(-0.00721028 0.00884738 0)
(-0.00183824 0.00287505 -1.24599e-23)
(-0.138274 -0.00431264 1.73388e-20)
(-0.151207 -0.00174697 -3.48048e-20)
(-0.156578 0.000492681 1.72646e-20)
(-0.155689 0.00217738 0)
(-0.149966 0.00334323 2.65206e-21)
(-0.140799 0.00404424 3.83277e-21)
(-0.129463 0.00437629 -7.04651e-21)
(-0.116995 0.00444129 5.10999e-21)
(-0.10418 0.00433308 -2.15108e-21)
(-0.0915594 0.00413047 0)
(-0.0794695 0.00389622 -2.26861e-22)
(-0.068082 0.00367815 1.67831e-22)
(-0.0574535 0.00350922 -1.23323e-21)
(-0.0475728 0.00340526 2.59216e-21)
(-0.0384054 0.00336031 1.85585e-22)
(-0.0299336 0.00334143 -1.86482e-21)
(-0.0221883 0.00328543 0)
(-0.0152705 0.0031021 -1.95019e-21)
(-0.00934829 0.00269299 2.1064e-21)
(-0.00462354 0.00198979 7.59137e-23)
(-0.00140337 0.00100062 -1.26074e-21)
(-0.000154201 -2.66324e-05 1.48716e-22)
(1.14155 0.0203958 -4.33911e-20)
(1.09578 0.0217672 4.83145e-20)
(1.04792 0.0231825 1.70364e-24)
(0.99785 0.0246406 0)
(0.945678 0.026143 0)
(0.891486 0.0276918 -4.08051e-20)
(0.835361 0.029286 4.45011e-20)
(0.777407 0.0309232 -5.07847e-20)
(0.71774 0.0326011 5.49898e-20)
(0.656493 0.0343181 3.05106e-20)
(0.593813 0.0360725 4.22821e-22)
(0.529873 0.037855 -3.61807e-20)
(0.464896 0.0396302 -1.96457e-20)
(0.399222 0.0413027 4.26108e-20)
(0.333408 0.0426773 -4.49499e-20)
(0.268365 0.04343 -4.80665e-20)
(0.205473 0.0431085 8.82043e-20)
(0.146639 0.0411751 -5.25162e-20)
(0.0941614 0.0370838 -1.38182e-20)
(0.0504841 0.0303734 1.41367e-20)
(0.0189054 0.0207221 2.92175e-20)
(0.00353466 0.00799575 -2.37699e-20)
(1.1458 0.0759702 -4.31656e-20)
(1.10046 0.0815197 -4.22801e-22)
(1.05319 0.0873458 1.23764e-21)
(1.00369 0.0934186 -6.21096e-20)
(0.952084 0.0997291 7.21736e-20)
(0.898463 0.106278 -7.89762e-20)
(0.842911 0.113058 4.4443e-20)
(0.785532 0.120058 0)
(0.726443 0.127266 0)
(0.665775 0.134666 2.98112e-20)
(0.603674 0.142226 -3.37463e-20)
(0.540309 0.149872 1.07718e-19)
(0.475889 0.157404 1.96417e-20)
(0.410723 0.164372 0)
(0.345316 0.169935 0)
(0.28049 0.17277 0)
(0.217503 0.171103 1.25385e-20)
(0.158123 0.162893 0)
(0.104502 0.146129 -1.22347e-19)
(0.0589567 0.119167 1.25867e-19)
(0.0246964 0.0809452 -2.85313e-20)
(0.00578682 0.031134 -9.4561e-20)
(1.15439 0.13158 0)
(1.10999 0.141327 1.4362e-19)
(1.06394 0.151491 5.5064e-20)
(1.0156 0.162063 -1.25885e-19)
(0.965165 0.173033 1.38185e-19)
(0.91272 0.184411 0)
(0.858352 0.19619 -4.4358e-20)
(0.802169 0.208358 9.91628e-20)
(0.744288 0.220894 -1.07386e-19)
(0.684838 0.233772 -1.19233e-19)
(0.623961 0.246937 0)
(0.561813 0.260252 -1.06026e-19)
(0.498578 0.273358 2.30405e-19)
(0.434499 0.285458 -8.25844e-20)
(0.369963 0.295076 -1.76535e-19)
(0.305603 0.299908 1.85333e-19)
(0.242428 0.296878 1.96264e-19)
(0.181909 0.282465 -2.03953e-19)
(0.125905 0.253217 -5.2278e-20)
(0.0764786 0.206339 2.70033e-20)
(0.0366604 0.140046 2.853e-20)
(0.0104357 0.0538285 9.26988e-20)
(1.16639 0.184463 -1.61511e-19)
(1.12352 0.198287 -9.4905e-20)
(1.07941 0.212647 -1.05522e-19)
(1.03291 0.227598 3.39403e-21)
(0.984307 0.243121 -2.73565e-19)
(0.933697 0.259225 -3.90667e-21)
(0.881167 0.275903 2.54361e-19)
(0.826829 0.293138 0)
(0.770802 0.310903 0)
(0.713215 0.329158 -2.90281e-19)
(0.654207 0.347827 -4.20762e-21)
(0.593918 0.366708 3.44383e-19)
(0.532488 0.385286 -1.52472e-19)
(0.470066 0.402428 3.17449e-19)
(0.406859 0.416036 -1.69747e-19)
(0.343219 0.422846 0)
(0.279777 0.418516 0)
(0.217564 0.39809 0)
(0.157993 0.356733 5.22422e-20)
(0.102749 0.290552 -7.89675e-20)
(0.0545977 0.197096 2.1963e-19)
(0.0174024 0.0757114 -3.58793e-19)
(1.18179 0.234762 -1.573e-19)
(1.14096 0.252536 3.6494e-19)
(1.09942 0.270893 -9.9445e-20)
(1.05537 0.290022 3.58369e-21)
(1.0092 0.309882 1.34135e-19)
(0.961022 0.330487 -1.46812e-19)
(0.910933 0.351832 -8.42683e-20)
(0.859047 0.373897 0)
(0.805486 0.39665 1.00003e-19)
(0.750378 0.420041 1.13996e-19)
(0.693857 0.443972 0)
(0.636044 0.468183 0)
(0.577022 0.492013 7.51691e-20)
(0.516812 0.513999 -6.93135e-19)
(0.455384 0.531446 3.25963e-19)
(0.392718 0.540162 0)
(0.328941 0.534589 -8.84471e-20)
(0.264504 0.508393 9.22367e-20)
(0.200236 0.455428 2.44935e-19)
(0.137329 0.370778 -1.50884e-19)
(0.0782032 0.251393 -2.60981e-19)
(0.0265642 0.0965119 1.71576e-19)
(1.20014 0.281187 0)
(1.16187 0.302738 3.50672e-19)
(1.12353 0.324859 -1.96811e-19)
(1.0825 0.347934 1.1475e-19)
(1.03935 0.371893 -2.5738e-19)
(0.994192 0.396753 2.81736e-19)
(0.947124 0.422511 3.21567e-19)
(0.89827 0.449145 -3.49664e-19)
(0.847754 0.47662 -2.96233e-19)
(0.795708 0.504877 3.23687e-19)
(0.742258 0.533801 1.17114e-19)
(0.687501 0.563079 -2.51806e-19)
(0.631454 0.591912 5.46622e-19)
(0.573981 0.618529 -2.90889e-19)
(0.51476 0.639666 3.11097e-19)
(0.453312 0.650247 -3.26932e-19)
(0.389144 0.643551 1.71421e-19)
(0.32199 0.611941 2.66504e-19)
(0.251968 0.54804 -4.18905e-19)
(0.179668 0.445998 -4.63361e-20)
(0.107095 0.302244 4.95485e-19)
(0.037768 0.115961 -1.61745e-19)
(1.221 0.323161 -1.48519e-19)
(1.1858 0.348264 1.61197e-22)
(1.15121 0.373851 -1.87959e-19)
(1.11372 0.400582 0)
(1.0741 0.428342 2.44836e-19)
(1.03248 0.457154 -1.35871e-19)
(0.98896 0.487019 0)
(0.943668 0.517911 3.37888e-19)
(0.896737 0.549792 -3.66175e-19)
(0.848298 0.582597 1.03795e-19)
(0.798472 0.616194 -2.20208e-19)
(0.747328 0.650226 0)
(0.694804 0.683767 -1.32092e-19)
(0.640583 0.714766 2.74808e-19)
(0.583998 0.739426 -5.81552e-19)
(0.524027 0.751839 3.06188e-19)
(0.459449 0.744185 -1.60111e-19)
(0.389151 0.707604 -3.34051e-19)
(0.312415 0.633578 -4.32753e-22)
(0.229139 0.515418 3.17523e-19)
(0.14085 0.349117 -4.17426e-19)
(0.050846 0.133861 3.03411e-19)
(1.24369 0.359994 0)
(1.21205 0.388408 1.62887e-19)
(1.18172 0.417154 1.75873e-19)
(1.14827 0.447223 2.05827e-19)
(1.11268 0.478443 -2.26038e-19)
(1.07509 0.510845 -1.31039e-19)
(1.03559 0.544437 -1.48754e-19)
(0.99434 0.579197 3.12011e-19)
(0.951471 0.615086 -1.67768e-19)
(0.907119 0.65204 3.80965e-19)
(0.861399 0.689917 -5.02651e-19)
(0.814357 0.728324 0)
(0.765844 0.766231 0)
(0.715343 0.801333 0)
(0.661803 0.829347 0)
(0.60358 0.843591 0)
(0.53862 0.835216 7.68919e-20)
(0.464841 0.794219 -7.32004e-20)
(0.380577 0.711036 0)
(0.284941 0.578234 7.61188e-21)
(0.178926 0.39147 0)
(0.0655862 0.150002 2.80467e-19)
(1.26746 0.391119 5.15198e-19)
(1.23984 0.422519 2.92803e-19)
(1.21417 0.454058 -3.45659e-19)
(1.18514 0.487114 1.89005e-19)
(1.15397 0.521446 2.16257e-19)
(1.12081 0.557093 -4.6856e-19)
(1.08576 0.594065 -4.04045e-19)
(1.04899 0.632336 2.90909e-19)
(1.01064 0.671867 1.08731e-20)
(0.970843 0.712592 0)
(0.929716 0.75436 1.97332e-19)
(0.887272 0.796756 -1.97007e-19)
(0.843273 0.838662 2.19421e-19)
(0.796984 0.87756 -2.33196e-19)
(0.746927 0.908733 0)
(0.690771 0.924793 1.22462e-19)
(0.625526 0.915943 2.67067e-19)
(0.548029 0.871122 -2.05539e-19)
(0.455554 0.779816 0)
(0.346355 0.633957 3.73607e-19)
(0.220845 0.428971 -2.3206e-19)
(0.0818038 0.164265 0)
(1.29143 0.416404 -2.52128e-19)
(1.26828 0.45052 -4.68127e-21)
(1.24769 0.484512 -3.14292e-19)
(1.22349 0.520162 0)
(1.19714 0.557158 3.94159e-19)
(1.16877 0.59556 8.87259e-21)
(1.1385 0.635396 2.37318e-19)
(1.10653 0.67665 0)
(1.07301 0.719292 1.53616e-19)
(1.03809 0.763261 0)
(1.00188 0.80841 1.8159e-19)
(0.964377 0.854311 -1.78722e-19)
(0.925261 0.899789 0)
(0.883577 0.942154 -4.19817e-19)
(0.837396 0.976312 2.24396e-19)
(0.783647 0.994234 1.10296e-19)
(0.718309 0.985244 2.37568e-19)
(0.637024 0.937306 -2.47952e-19)
(0.535896 0.83905 0)
(0.412241 0.681882 0)
(0.265851 0.461122 -4.0434e-19)
(0.0992034 0.176447 2.24427e-19)
(1.31469 0.435354 0)
(1.29636 0.471746 2.55449e-19)
(1.28101 0.507812 -1.4891e-19)
(1.26185 0.545739 1.64002e-19)
(1.24057 0.585112 -3.68972e-19)
(1.2173 0.625989 -1.9763e-19)
(1.19217 0.668394 -4.51951e-19)
(1.16539 0.712311 1.01726e-20)
(1.13711 0.757713 -2.69816e-19)
(1.10749 0.804542 0)
(1.07665 0.852655 1.43749e-20)
(1.04455 0.901622 -1.75453e-19)
(1.0108 0.950232 5.28746e-19)
(0.974201 0.995662 -8.89007e-20)
(0.932359 1.03251 0)
(0.881396 1.05218 2.01347e-19)
(0.81618 1.04323 -2.11399e-19)
(0.731057 0.992745 0)
(0.620879 0.888614 0)
(0.481977 0.721841 -2.25273e-19)
(0.313504 0.487776 2.94408e-19)
(0.11761 0.186494 4.49458e-20)
(1.33633 0.448781 2.16639e-19)
(1.3234 0.487253 -4.84119e-19)
(1.31366 0.524986 -2.71671e-19)
(1.29984 0.564633 2.95688e-19)
(1.28383 0.605737 1.7571e-19)
(1.26576 0.648402 3.75684e-19)
(1.24584 0.692676 1.58614e-20)
(1.22429 0.738558 2.35005e-19)
(1.2013 0.78603 2.34666e-19)
(1.17704 0.835047 0)
(1.15164 0.885481 1.39546e-20)
(1.12506 0.936921 -1.58474e-19)
(1.09684 0.988158 -3.59334e-21)
(1.06559 1.03629 2.36127e-19)
(1.02844 1.07568 -8.96672e-21)
(0.9807 1.09723 -1.02451e-20)
(0.916042 1.08876 -1.06537e-20)
(0.827397 1.03653 -2.73231e-19)
(0.708234 0.927774 -3.7105e-19)
(0.553827 0.753223 2.33122e-19)
(0.362674 0.508461 0)
(0.136585 0.194193 -2.09599e-19)
(1.35537 0.455493 -2.01067e-19)
(1.34789 0.495595 4.5736e-19)
(1.34364 0.534898 -2.54024e-19)
(1.33534 0.576247 -2.83253e-19)
(1.3249 0.61907 0)
(1.31242 0.663474 -1.78056e-19)
(1.29814 0.709513 1.95406e-19)
(1.28228 0.757198 1.95715e-19)
(1.26505 0.806522 -2.3097e-19)
(1.24663 0.857447 2.35047e-19)
(1.22715 0.909855 -2.40139e-19)
(1.20658 0.963346 0)
(1.18438 1.01671 1.73642e-20)
(1.15894 1.06701 -1.53543e-19)
(1.1269 1.10838 2.19871e-19)
(1.08268 1.13135 -3.72844e-19)
(1.0187 1.12312 0)
(0.926409 1.06933 8.28456e-20)