/*--------------------------------*- C++ -*----------------------------------*\
| =========                 |                                                 |
| \\      /  F ield         | OpenFOAM Extend Project: Open source CFD        |
|  \\    /   O peration     | Version:  1.6-ext                               |
|   \\  /    A nd           | Web:      www.extend-project.de                 |
|    \\/     M anipulation  |                                                 |
\*---------------------------------------------------------------------------*/
FoamFile
{
    version     2.0;
    format      ascii;
    class       volVectorField;
    location    "0.2";
    object      U_0;
}
// * * * * * * * * * * * * * * * * * * * * * * * * * * * * * * * * * * * * * //

dimensions      [0 1 -1 0 0 0 0];

internalField   nonuniform List<vector> 
20940
(
(1.73753 0.428566 -7.05343e-21)
(1.78773 0.439351 1.02291e-21)
(1.8358 0.449984 0)
(1.8806 0.459868 1.76224e-21)
(1.9213 0.468967 -2.67343e-21)
(1.95575 0.476157 8.01275e-22)
(1.98057 0.480158 1.56544e-21)
(1.99078 0.479007 0)
(1.98021 0.470573 0)
(1.94239 0.452885 8.19178e-21)
(1.87203 0.424752 -4.65338e-21)
(1.76652 0.386234 6.43827e-21)
(1.62704 0.338866 -1.92768e-24)
(1.45866 0.285467 2.26996e-24)
(1.26955 0.229627 0)
(1.06938 0.175048 -5.94179e-21)
(0.867799 0.124974 6.24207e-21)
(0.673085 0.0818584 0)
(0.491488 0.0472309 0)
(0.327027 0.021754 0)
(0.181691 0.00589707 3.92179e-21)
(0.0558257 0.000368423 4.22856e-25)
(1.75207 0.385615 1.41044e-20)
(1.80161 0.395742 1.94172e-20)
(1.84889 0.405098 -4.4641e-21)
(1.89238 0.413546 4.93901e-21)
(1.93056 0.420653 0)
(1.96042 0.425266 -1.91325e-21)
(1.97764 0.425953 4.34956e-21)
(1.97654 0.420829 3.66856e-21)
(1.95086 0.408076 0)
(1.89488 0.386342 -3.8661e-21)
(1.80503 0.355255 -8.95577e-22)
(1.6811 0.315708 5.50858e-21)
(1.52673 0.269836 1.58729e-20)
(1.34897 0.220643 -1.69278e-20)
(1.15698 0.171441 0)
(0.960438 0.125288 -3.30831e-20)
(0.768142 0.0846095 2.35554e-20)
(0.587122 0.051041 0)
(0.422282 0.0254306 0)
(0.276472 0.00795008 0)
(0.150833 -0.00124571 -3.90634e-21)
(0.045224 -0.00161567 6.17048e-21)
(1.76393 0.338877 -2.9009e-20)
(1.81241 0.348502 -1.25695e-20)
(1.85831 0.356794 0)
(1.89959 0.363967 -4.52557e-21)
(1.93389 0.369226 3.05586e-21)
(1.95727 0.371423 -2.94894e-22)
(1.96461 0.369079 -9.37344e-21)
(1.94985 0.360532 2.4247e-21)
(1.90707 0.34442 0)
(1.83191 0.320072 0)
(1.72293 0.287874 2.13953e-20)
(1.58238 0.249344 -3.5339e-20)
(1.4161 0.20691 0)
(1.23255 0.163452 3.44121e-20)
(1.04125 0.121784 -5.4675e-20)
(0.85135 0.0842448 1.06596e-20)
(0.670511 0.0524885 0)
(0.504417 0.0274712 1.27769e-20)
(0.356705 0.00952275 -2.53895e-20)
(0.229197 -0.00152619 1.42987e-20)
(0.122329 -0.00573306 -5.00363e-20)
(0.0355746 -0.00269008 2.32496e-20)
(1.774 0.289248 -2.80789e-20)
(1.82099 0.298455 0)
(1.86475 0.305795 0)
(1.90262 0.311791 8.66239e-21)
(1.93131 0.315325 -1.65034e-21)
(1.946 0.315322 0)
(1.94095 0.310379 -2.42409e-21)
(1.91015 0.299191 -5.64776e-21)
(1.84865 0.280937 2.02889e-20)
(1.75392 0.255613 0)
(1.62689 0.224213 9.24223e-21)
(1.47219 0.188616 1.20601e-20)
(1.29741 0.151246 -1.51747e-20)
(1.11175 0.114618 -1.77029e-21)
(0.92451 0.0809231 5.2319e-20)
(0.743886 0.0517881 0)
(0.57623 0.028202 2.00543e-20)
(0.425884 0.0105888 1.16222e-20)
(0.295331 -0.00108942 1.14612e-20)
(0.185519 -0.00721799 9.55004e-22)
(0.0963139 -0.00797643 -6.85678e-21)
(0.0268963 -0.00302713 -5.76971e-21)
(1.78163 0.237459 -2.30602e-20)
(1.82669 0.246178 -2.5165e-21)
(1.86743 0.252592 7.65495e-21)
(1.9005 0.257491 -1.40816e-20)
(1.92165 0.259507 0)
(1.92533 0.257715 0)
(1.90555 0.250898 -9.42024e-21)
(1.85688 0.238188 0)
(1.77586 0.219312 0)
(1.66218 0.19482 0)
(1.5192 0.166091 -4.03903e-20)
(1.35354 0.135088 4.25303e-20)
(1.17394 0.103983 1.15557e-20)
(0.989731 0.0747739 1.40228e-20)
(0.809506 0.0490108 0)
(0.640223 0.0276871 5.30486e-20)
(0.486878 0.0112657 -5.79142e-20)
(0.352564 -0.000210376 4.17785e-20)
(0.238764 -0.00701397 -5.4924e-20)
(0.145717 -0.00964386 1.20987e-20)
(0.0728541 -0.00833095 0)
(0.0191611 -0.00275981 0)
(1.78589 0.184356 4.76758e-20)
(1.82849 0.192527 1.52922e-21)
(1.8652 0.198087 -3.79767e-20)
(1.89197 0.202044 7.05778e-21)
(1.90362 0.202889 4.76972e-21)
(1.89414 0.199926 -1.75778e-20)
(1.85777 0.192207 7.88262e-21)
(1.79018 0.179323 0)
(1.68988 0.161468 -2.20489e-20)
(1.55891 0.139566 0)
(1.40286 0.115126 -5.51902e-20)
(1.22984 0.0899514 8.30314e-20)
(1.0491 0.0657955 -7.10434e-20)
(0.86955 0.0440883 1.17274e-20)
(0.698706 0.0257941 0)
(0.542196 0.0113982 -1.69655e-20)
(0.403704 0.000983237 -1.88442e-20)
(0.285222 -0.00565272 3.73192e-20)
(0.187411 -0.00890937 0)
(0.109958 -0.00932331 6.35377e-20)
(0.0519826 -0.00712939 -4.44233e-20)
(0.0123558 -0.00200689 3.79539e-20)
(1.7867 0.130486 0)
(1.82621 0.137934 3.1886e-20)
(1.85774 0.142709 -2.50488e-21)
(1.87657 0.145987 2.00561e-21)
(1.87678 0.146233 -2.21331e-21)
(1.8523 0.143008 1.63378e-20)
(1.79806 0.135657 0)
(1.71137 0.124156 1.57201e-20)
(1.59294 0.109009 2.19222e-20)
(1.44715 0.0912885 -2.891e-20)
(1.28138 0.0724044 -3.06373e-21)
(1.10465 0.0538246 1.57658e-20)
(0.926116 0.0368123 4.25058e-20)
(0.753841 0.0222651 4.76801e-20)
(0.594088 0.0106693 -5.30492e-20)
(0.451151 0.00214259 0)
(0.32753 -0.0034761 -1.5086e-21)
(0.22429 -0.00652224 -3.48461e-20)
(0.14144 -0.00744191 3.62954e-20)
(0.0782565 -0.00675828 -2.03807e-20)
(0.0336513 -0.00468249 -4.15167e-20)
(0.00644326 -0.000875667 4.2741e-20)
(1.78272 0.0767114 0)
(1.81847 0.0834737 0)
(1.84374 0.0877616 7.25842e-21)
(1.85323 0.090812 -1.19755e-20)
(1.84049 0.0912116 0)
(1.79983 0.0887778 -1.11416e-20)
(1.72735 0.083129 -2.47532e-20)
(1.62234 0.0745014 2.66221e-20)
(1.48783 0.0635227 0)
(1.33025 0.0511934 0)
(1.15827 0.0386435 0)
(0.981223 0.0269132 -1.83062e-20)
(0.807709 0.0167846 -2.16745e-20)
(0.644672 0.00871193 2.01253e-20)
(0.497068 0.00283316 -2.32144e-20)
(0.367947 -0.00096839 -5.41584e-20)
(0.25879 -0.00298386 4.18295e-20)
(0.169912 -0.00359794 -7.79833e-20)
(0.100823 -0.00324833 1.33273e-19)
(0.0505094 -0.00241442 -6.99443e-20)
(0.0177544 -0.00127143 -1.78056e-20)
(0.00137171 0.000539186 3.10376e-20)
(1.7747 0.0232552 3.10585e-20)
(1.806 0.0291359 -3.45327e-20)
(1.82388 0.0331938 -6.12544e-21)
(1.82266 0.0366018 1.0926e-20)
(1.79576 0.0381634 7.2847e-21)
(1.73825 0.0378423 -2.04996e-20)
(1.64785 0.0354179 2.04894e-20)
(1.52601 0.0311843 -4.74785e-20)
(1.37796 0.0256804 3.53764e-20)
(1.21179 0.0196493 -2.45446e-20)
(1.0369 0.0138348 2.6562e-20)
(0.862425 0.00883933 -3.25167e-20)
(0.696071 0.00503744 1.61198e-20)
(0.543548 0.00256116 0)
(0.408545 0.00133305 6.76149e-20)
(0.293015 0.00112016 1.5121e-21)
(0.197591 0.00159222 -2.319e-20)
(0.121999 0.00237691 -5.39679e-20)
(0.065381 0.00308089 1.43238e-20)
(0.0265272 0.00328497 6.48034e-20)
(0.00414751 0.00285205 -6.52355e-20)
(-0.00291876 0.00215413 -7.60159e-21)
(1.76052 -0.0287756 -3.95264e-20)
(1.78681 -0.0234278 -2.63521e-20)
(1.79666 -0.0189584 1.61944e-20)
(1.78412 -0.0144554 2.01958e-21)
(1.74273 -0.0107439 8.04612e-21)
(1.66872 -0.00780432 3.21137e-21)
(1.56166 -0.00578332 -6.30704e-20)
(1.42521 -0.00451133 2.51254e-20)
(1.26655 -0.0037123 3.76296e-20)
(1.09497 -0.00303135 -8.54927e-20)
(0.920092 -0.00215624 4.82887e-20)
(0.750484 -0.00088424 0)
(0.592764 0.000847149 0)
(0.451406 0.00296673 -1.68044e-20)
(0.328951 0.00529533 1.8531e-20)
(0.226423 0.00757699 -4.35425e-20)
(0.143774 0.00950987 7.05097e-20)
(0.0802801 0.0107772 1.3292e-20)
(0.0348197 0.0110534 -1.42661e-20)
(0.00605368 0.00998763 -5.84561e-20)
(-0.00734366 0.007478 7.64905e-20)
(-0.00649367 0.00389954 0)
(1.74285 -0.0799618 -3.82827e-20)
(1.76364 -0.0756189 5.11509e-20)
(1.76475 -0.070411 -2.05082e-20)
(1.74024 -0.0640185 4.53046e-21)
(1.68423 -0.056885 -9.86739e-21)
(1.59437 -0.0492115 2.11749e-20)
(1.47222 -0.0412803 -2.11813e-20)
(1.32355 -0.0332853 7.75316e-20)
(1.15711 -0.025373 -3.07457e-20)
(0.982886 -0.0176529 0)
(0.810342 -0.0102273 0)
(0.647189 -0.00321122 -2.58874e-20)
(0.498901 0.00325884 2.78144e-20)
(0.368791 0.00902301 1.74613e-21)
(0.258403 0.0138993 -1.83726e-20)
(0.167999 0.0176857 0)
(0.0970058 0.0201638 -4.23259e-20)
(0.0443633 0.0211087 4.44553e-20)
(0.00876509 0.0202831 -4.92882e-20)
(-0.0112119 0.0174141 5.12535e-20)
(-0.0169117 0.012435 0)
(-0.00941984 0.00571579 0)
(1.71721 -0.128125 0)
(1.73258 -0.123894 -2.47796e-20)
(1.72537 -0.117188 0)
(1.68965 -0.10828 0)
(1.62027 -0.0970339 0)
(1.51642 -0.0839237 -1.20484e-20)
(1.38167 -0.0694309 1.88152e-20)
(1.22362 -0.0542441 -2.52511e-20)
(1.05224 -0.0390245 0)
(0.877858 -0.0243877 0)
(0.709443 -0.0108294 -1.91554e-20)
(0.553751 0.00127745 0)
(0.415144 0.0116726 0)
(0.295908 0.02018 1.47414e-20)
(0.196768 0.0266773 0)
(0.117392 0.0310667 -1.60475e-20)
(0.0568193 0.0332531 3.77347e-20)
(0.0137544 0.0331343 -3.96767e-20)
(-0.013235 0.0305847 -2.0702e-20)
(-0.0256283 0.0254245 0)
(-0.0247868 0.0176307 1.17817e-20)
(-0.0117779 0.00756898 -3.28238e-20)
(1.69081 -0.176341 -3.34272e-20)
(1.70019 -0.173718 6.18325e-21)
(1.68437 -0.165322 6.26826e-21)
(1.63749 -0.15303 0)
(1.55549 -0.136272 0)
(1.43915 -0.11619 0)
(1.29389 -0.0937224 -1.7411e-20)
(1.12888 -0.0702516 1.65394e-21)
(0.954899 -0.0470411 5.64867e-22)
(0.782204 -0.0252086 0)
(0.619079 -0.00558133 3.81759e-20)
(0.47126 0.0112923 -2.03219e-20)
(0.342072 0.0251062 0)
(0.232929 0.0357317 2.33471e-20)
(0.143912 0.0431559 0)
(0.0742638 0.0474265 1.58782e-20)
(0.0227616 0.0486092 -3.35875e-20)
(-0.0120354 0.0467601 3.5357e-20)
(-0.0316378 0.0418987 7.86549e-20)
(-0.0375656 0.0339688 1.13978e-21)
(-0.0312079 0.0230187 -4.50909e-20)
(-0.0136468 0.00943298 -1.95576e-20)
(1.65276 -0.217697 3.29759e-20)
(1.65788 -0.214772 -2.43217e-20)
(1.6354 -0.204904 1.40142e-20)
(1.57966 -0.189624 -2.12577e-21)
(1.48779 -0.167897 2.34422e-21)
(1.362 -0.141306 1.10124e-20)
(1.20942 -0.111254 1.71428e-20)
(1.04042 -0.0798339 2.21666e-20)
(0.866277 -0.0489414 -2.651e-20)
(0.696966 -0.0202146 2.83162e-20)
(0.539983 0.00517026 1.69864e-20)
(0.400089 0.0264715 -3.5986e-20)
(0.279716 0.0433189 0)
(0.179596 0.0556167 -2.30318e-20)
(0.0993617 0.0634538 2.4617e-20)
(0.037996 0.0670273 -2.61724e-20)
(-0.0058568 0.0665808 0)
(-0.0337008 0.062359 0)
(-0.047081 0.0545663 -1.77625e-21)
(-0.0475486 0.0433147 5.59617e-20)
(-0.0365359 0.028769 -9.52157e-21)
(-0.0151682 0.0113755 -2.56202e-20)
(1.6213 -0.265602 3.60454e-20)
(1.61917 -0.264486 -2.08667e-20)
(1.58956 -0.25219 2.31068e-20)
(1.52535 -0.232592 0)
(1.42463 -0.204093 -9.07086e-21)
(1.2909 -0.169126 -2.32911e-20)
(1.1328 -0.129773 1.3649e-20)
(0.96167 -0.088967 8.90889e-22)
(0.788962 -0.0492995 5.91485e-22)
(0.62409 -0.0129256 -2.78325e-20)
(0.473598 0.0186792 -2.96736e-20)
(0.341273 0.044646 4.89209e-20)
(0.228773 0.0645985 1.69423e-20)
(0.136327 0.0785105 1.96582e-20)
(0.0633001 0.0865901 -5.72322e-22)
(0.00857518 0.0891906 -1.12862e-20)
(-0.0292102 0.0867408 -3.90654e-20)
(-0.0515333 0.0796918 2.80798e-20)
(-0.059918 0.0684679 -4.816e-20)
(-0.0559237 0.0533993 1.54374e-20)
(-0.0410314 0.0348354 8.61044e-21)
(-0.0164392 0.0133709 -3.20666e-20)
(1.57675 -0.292389 -2.23098e-20)
(1.56082 -0.292726 -2.82963e-20)
(1.51521 -0.278319 1.19184e-20)
(1.43317 -0.254311 1.58426e-21)
(1.31668 -0.21938 7.77455e-21)
(1.17168 -0.176858 -1.34747e-20)
(1.00881 -0.12963 1.47592e-20)
(0.83958 -0.0814159 4.29744e-20)
(0.674313 -0.0352903 -9.73782e-20)
(0.52059 0.00633947 2.25349e-22)
(0.38314 0.0419191 0)
(0.264317 0.0705815 0)
(0.164825 0.0919828 -3.40284e-20)
(0.084353 0.106143 0)
(0.0220228 0.113334 -2.11416e-20)
(-0.0233379 0.114005 1.16469e-20)
(-0.0530514 0.108723 1.28123e-20)
(-0.0685185 0.0981193 -1.44384e-20)
(-0.0711889 0.082841 2.85297e-20)
(-0.0625741 0.0634735 0)
(-0.0441399 0.040622 -8.69393e-21)
(-0.0171042 0.0151208 0)
(1.51809 -0.332402 0)
(1.47719 -0.32512 -6.79979e-21)
(1.40335 -0.300475 1.34014e-20)
(1.29441 -0.264462 -7.14382e-21)
(1.15779 -0.217295 0)
(1.00219 -0.163828 3.05899e-20)
(0.839283 -0.107869 -1.72969e-20)
(0.678992 -0.0534787 0)
(0.529 -0.00352878 4.9034e-20)
(0.394022 0.0400108 2.69855e-20)
(0.276428 0.0760579 -4.1926e-20)
(0.17691 0.104126 3.02845e-20)
(0.0951677 0.124129 4.91686e-20)
(0.0303781 0.136244 -3.47523e-20)
(-0.0185153 0.140831 -1.01925e-20)
(-0.0526637 0.138403 4.18032e-20)
(-0.0732619 0.129594 -2.24336e-20)
(-0.0815383 0.115133 -1.29714e-20)
(-0.0787625 0.0958007 4.01503e-20)
(-0.0662726 0.0723586 -2.83701e-20)
(-0.0453693 0.045615 3.09745e-20)
(-0.0171413 0.0165829 3.3528e-22)
(1.42593 -0.359706 3.74799e-20)
(1.35845 -0.342184 -1.18638e-20)
(1.25916 -0.306193 -3.92892e-21)
(1.13145 -0.258484 -3.34117e-21)
(0.98534 -0.201221 0)
(0.830355 -0.139815 1.6159e-21)
(0.676845 -0.0784953 -1.82792e-20)
(0.532094 -0.0209441 0)
(0.400975 0.0304661 -2.47369e-20)
(0.285849 0.0742897 0)
(0.187458 0.109823 6.0334e-22)
(0.105533 0.136811 0)
(0.0393046 0.155276 0)
(-0.012192 0.165425 0)
(-0.0499727 0.167619 -1.79225e-20)
(-0.0750503 0.162365 0)
(-0.0884361 0.150316 2.1539e-20)
(-0.091158 0.132255 -2.25909e-20)
(-0.0842856 0.109061 -4.98372e-20)
(-0.0689622 0.0816396 1.9762e-20)
(-0.046293 0.0509744 6.6721e-21)
(-0.0171929 0.0182443 0)
(1.30441 -0.378636 -1.19177e-20)
(1.2134 -0.349721 1.02045e-20)
(1.09565 -0.30227 -2.09588e-21)
(0.958699 -0.244063 -3.96436e-21)
(0.812712 -0.178867 2.0986e-20)
(0.666486 -0.112014 3.32731e-20)
(0.52781 -0.0476971 1.29934e-21)
(0.401317 0.0110884 -2.19626e-20)
(0.289579 0.062528 0)
(0.193372 0.105663 0)
(0.112484 0.140098 1.36547e-20)
(0.0461687 0.165749 0)
(-0.00651909 0.182704 -2.89093e-20)
(-0.0465561 0.191165 1.56822e-20)
(-0.0748751 0.191443 -8.20828e-21)
(-0.0923541 0.183983 1.79084e-20)
(-0.0998355 0.169384 0)
(-0.0981546 0.148408 0)
(-0.088172 0.121952 1.18614e-20)
(-0.0708122 0.0909872 6.32456e-21)
(-0.0469473 0.056609 1.91751e-20)
(-0.0172616 0.020116 -2.71054e-20)
(1.15558 -0.386203 -3.32125e-20)
(1.04739 -0.345877 -9.13811e-21)
(0.920104 -0.288794 7.01842e-22)
(0.783102 -0.222867 2.63652e-21)
(0.644948 -0.152879 -4.57958e-22)
(0.512755 -0.0835912 -1.49077e-20)
(0.391547 -0.0187522 -1.95909e-20)
(0.283876 0.039391 2.14977e-20)
(0.190735 0.0895579 0)
(0.111982 0.131185 2.41666e-20)
(0.0469262 0.164106 -2.60941e-20)
(-0.00538262 0.188348 0)
(-0.0459484 0.204021 1.43907e-20)
(-0.0757313 0.211282 0)
(-0.0956054 0.210352 8.23631e-21)
(-0.106354 0.201558 -2.42208e-20)
(-0.108691 0.185377 8.30403e-21)
(-0.103285 0.162465 0)
(-0.0907967 0.133649 0)
(-0.0719243 0.0998739 2.18321e-20)
(-0.0472858 0.0622573 -2.24785e-20)
(-0.0172988 0.0221309 9.84369e-21)
(0.985744 -0.382018 4.05484e-20)
(0.868343 -0.332064 8.18237e-21)
(0.739917 -0.268523 -3.03028e-21)
(0.609916 -0.198402 3.34441e-21)
(0.484463 -0.126894 -1.15928e-20)
(0.36875 -0.0579542 3.17466e-20)
(0.265535 0.00532792 -5.49836e-20)
(0.17598 0.0613324 1.05974e-20)
(0.100139 0.109212 0)
(0.0374111 0.148689 0)
(-0.0131198 0.179761 3.47258e-20)
(-0.0524963 0.202539 -2.51979e-20)
(-0.0817649 0.217148 -5.9787e-21)
(-0.101904 0.223698 6.19567e-21)
(-0.113785 0.222303 -6.55299e-21)
(-0.118155 0.213137 4.41768e-20)
(-0.115649 0.196498 -8.13468e-21)
(-0.106811 0.172857 -1.64959e-20)
(-0.0921296 0.142871 -1.79063e-20)
(-0.0720843 0.107361 3.75136e-20)
(-0.0470452 0.0673493 -2.40605e-20)
(-0.0171656 0.0240869 1.24919e-20)
(0.802493 -0.36687 -2.52892e-20)
(0.683507 -0.310432 1.32535e-20)
(0.5604 -0.244091 0)
(0.441815 -0.173329 0)
(0.331409 -0.103215 0)
(0.232706 -0.0369302 1.13269e-20)
(0.146914 0.0231086 7.14272e-21)
(0.0743618 0.0757381 1.79649e-20)
(0.0145984 0.120432 -8.96382e-21)
(-0.0332033 0.157115 0)
(-0.070079 0.185922 -1.62459e-21)
(-0.0971469 0.207048 0)
(-0.115521 0.220654 6.03572e-21)
(-0.126244 0.226821 -6.24963e-21)
(-0.130232 0.22557 1.74469e-20)
(-0.128253 0.216912 -6.88617e-21)
(-0.120915 0.200932 -2.66022e-20)
(-0.108688 0.177854 1.39397e-20)
(-0.0919301 0.148085 0)
(-0.0709412 0.112217 -1.58088e-20)
(-0.0458833 0.071066 1.71318e-20)
(-0.0166947 0.025669 0)
(0.613662 -0.341667 0)
(0.499033 -0.282644 0)
(0.385412 -0.217002 1.26785e-21)
(0.280434 -0.148796 -6.16822e-22)
(0.185747 -0.0825454 7.46868e-21)
(0.103623 -0.020818 -1.9657e-20)
(0.0343307 0.0345327 -2.03918e-21)
(-0.0222872 0.0826573 -2.95055e-20)
(-0.0669518 0.123256 1.82599e-20)
(-0.100629 0.15641 7.50399e-21)
(-0.124451 0.182378 -1.86045e-20)
(-0.139628 0.201459 1.83025e-20)
(-0.147365 0.213877 -1.86915e-20)
(-0.148794 0.219725 9.72761e-21)
(-0.144911 0.218961 -2.83008e-23)
(-0.136535 0.211458 -1.24611e-20)
(-0.124296 0.197084 2.29245e-21)
(-0.10864 0.175792 -2.38986e-21)
(-0.0898569 0.14769 0)
(-0.0681253 0.113065 2.59094e-21)
(-0.0434775 0.0724266 3.64509e-21)
(-0.0157323 0.0264783 0)
(0.427166 -0.307541 0)
(0.320643 -0.249868 0)
(0.218764 -0.18789 0)
(0.128066 -0.124861 -1.43861e-21)
(0.0488527 -0.0644992 7.12563e-22)
(-0.0174962 -0.00892705 6.40727e-21)
(-0.0712412 0.0404325 -9.50357e-21)
(-0.11285 0.0829522 6.3272e-21)
(-0.143224 0.118502 1.30197e-20)
(-0.163457 0.147294 -1.3995e-20)
(-0.174798 0.169715 0)
(-0.178561 0.186177 0)
(-0.176054 0.196997 -2.90528e-21)
(-0.168498 0.202316 0)
(-0.156967 0.202074 5.80717e-21)
(-0.142341 0.196047 -5.24535e-21)
(-0.12529 0.183929 3.92928e-21)
(-0.106283 0.165426 1.04262e-20)
(-0.0856034 0.140341 -8.32322e-21)
(-0.0633846 0.108637 -2.59505e-21)
(-0.0396345 0.070457 0)
(-0.0141866 0.0260936 -7.9325e-21)
(0.250857 -0.264547 -2.46112e-20)
(0.154299 -0.211848 -2.01422e-20)
(0.0650538 -0.156141 -9.83685e-21)
(-0.0115544 -0.100504 5.49333e-21)
(-0.0759412 -0.0478389 0)
(-0.127378 7.69825e-05 -1.3085e-21)
(-0.166436 0.042149 -1.33719e-21)
(-0.193843 0.0779304 0)
(-0.210683 0.107434 -3.48145e-21)
(-0.218219 0.130995 5.06238e-21)
(-0.21784 0.149114 1.5024e-21)
(-0.210975 0.162317 -1.63337e-21)
(-0.199015 0.171016 8.28638e-21)
(-0.18324 0.175416 -4.78664e-21)
(-0.16476 0.175476 -1.51648e-21)
(-0.144487 0.170932 0)
(-0.123126 0.161368 2.52443e-21)
(-0.101181 0.146311 4.96148e-21)
(-0.0789761 0.125328 -5.59849e-21)
(-0.0566738 0.0980959 0)
(-0.0343695 0.0644146 4.02248e-22)
(-0.0120634 0.024157 -3.3395e-21)
(0.0924852 -0.214309 2.48336e-20)
(0.00641459 -0.169301 5.21249e-20)
(-0.0700989 -0.121983 -1.65943e-20)
(-0.133095 -0.0754703 -3.02135e-20)
(-0.18327 -0.0320045 1.20602e-20)
(-0.22045 0.00694867 0)
(-0.245481 0.0405781 8.15538e-22)
(-0.2594 0.0686207 -1.66111e-21)
(-0.263541 0.0912337 9.40117e-22)
(-0.259386 0.108864 -2.24498e-21)
(-0.24848 0.122107 6.92372e-22)
(-0.232343 0.131565 -3.46818e-22)
(-0.21239 0.137716 1.7408e-21)
(-0.189884 0.140819 -2.40919e-21)
(-0.165894 0.140866 0)
(-0.141297 0.137599 4.12075e-22)
(-0.11678 0.13057 -3.34964e-21)
(-0.0928665 0.119232 4.82056e-21)
(-0.0699287 0.103027 -2.08613e-21)
(-0.048203 0.0814663 0)
(-0.0279584 0.0541111 -4.0232e-22)
(-0.00949491 0.0205137 2.75325e-22)
(-0.0411081 -0.156265 1.82253e-20)
(-0.116027 -0.121124 2.16852e-21)
(-0.179418 -0.0843126 3.12196e-22)
(-0.228682 -0.048744 1.91457e-20)
(-0.264652 -0.0160955 -4.33283e-21)
(-0.287751 0.0125155 -4.69349e-21)
(-0.299202 0.0365723 5.12647e-21)
(-0.300443 0.0560166 7.77833e-22)
(-0.293123 0.0711406 0)
(-0.278942 0.0824652 1.04418e-21)
(-0.259549 0.0906135 -1.06193e-21)
(-0.236458 0.0961873 2.33216e-22)
(-0.210994 0.0996584 -5.84672e-22)
(-0.184277 0.101287 6.24491e-22)
(-0.157224 0.101086 -7.02334e-22)
(-0.130575 0.0988271 -4.13148e-22)
(-0.104925 0.0941002 0)
(-0.0807601 0.0863843 2.32668e-23)
(-0.0584703 0.0751372 1.58001e-22)
(-0.0383592 0.0598668 -4.10212e-23)
(-0.0208882 0.0400905 7.37316e-22)
(-0.00671931 0.0152681 -4.71972e-22)
(-0.141844 -0.0973577 1.66463e-20)
(-0.203113 -0.0730931 -2.30628e-20)
(-0.251314 -0.0479543 0)
(-0.285298 -0.02427 1.03994e-20)
(-0.306159 -0.0031605 -7.07437e-21)
(-0.315034 0.01467 0)
(-0.313633 0.0290145 1.78709e-21)
(-0.303809 0.0400108 0)
(-0.287453 0.0480387 4.16294e-21)
(-0.266336 0.0536119 -6.77875e-21)
(-0.242023 0.0572795 2.35476e-21)
(-0.215822 0.0595403 0)
(-0.18878 0.0607708 0)
(-0.161715 0.0611749 4.0491e-23)
(-0.135263 0.0607603 0)
(-0.109929 0.0593473 -3.44384e-24)
(-0.0861373 0.0566086 8.10815e-25)
(-0.0642712 0.0521324 -2.3292e-23)
(-0.0446786 0.045501 4.46287e-22)
(-0.0276738 0.0363614 3.82218e-22)
(-0.013829 0.0243823 -7.83633e-22)
(-0.004082 0.00920391 -1.31118e-22)
(-0.190627 -0.0368712 2.0501e-20)
(-0.231506 -0.0246387 2.3808e-20)
(-0.25981 -0.0126267 -1.71518e-20)
(-0.275805 -0.00203345 0)
(-0.280986 0.00675523 -3.04256e-21)
(-0.277061 0.0135667 0)
(-0.265992 0.0184983 -1.79295e-21)
(-0.249676 0.0217983 0)
(-0.229822 0.0237929 -1.07758e-21)
(-0.207861 0.0248259 -2.21638e-21)
(-0.184911 0.0252151 3.52754e-21)
(-0.161795 0.0252227 0)
(-0.139087 0.0250328 -2.99232e-23)
(-0.117176 0.024734 1.08631e-23)
(-0.0963394 0.0243104 0)
(-0.0768028 0.0236424 3.44788e-24)
(-0.058788 0.0225234 -8.11548e-25)
(-0.0425428 0.0206965 0)
(-0.0283322 0.017915 -5.02153e-23)
(-0.0164124 0.0140209 -5.32473e-25)
(-0.0072795 0.00896667 0)
(-0.00185932 0.00292616 2.07643e-23)
(-0.135722 -0.00447402 1.81771e-20)
(-0.149197 -0.00191984 -3.66218e-20)
(-0.155108 0.000331578 1.82705e-20)
(-0.154713 0.00204263 0)
(-0.149412 0.00324168 2.94611e-21)
(-0.140584 0.00397656 0)
(-0.129503 0.00433928 3.54189e-21)
(-0.117215 0.00442979 -3.84434e-21)
(-0.104515 0.00434143 0)
(-0.0919593 0.00415341 -1.25847e-21)
(-0.0798949 0.00392937 3.9767e-22)
(-0.068505 0.00371813 7.21234e-22)
(-0.0578549 0.00355366 2.54623e-22)
(-0.0479396 0.00345267 -2.49913e-22)
(-0.0387292 0.00340998 0)
(-0.0302091 0.0033931 -8.90034e-22)
(-0.0224123 0.0033389 9.29748e-22)
(-0.0154419 0.00315676 -6.90585e-27)
(-0.009468 0.00274713 -6.08544e-22)
(-0.00469514 0.00203987 9.94885e-22)
(-0.00143526 0.00104012 -3.60143e-22)
(-0.00016284 -8.88929e-06 -1.99525e-23)
(1.14171 0.020353 -4.35611e-20)
(1.09595 0.0217204 4.85038e-20)
(1.04809 0.0231309 1.71003e-24)
(0.998027 0.0245832 0)
(0.945858 0.0260782 0)
(0.891666 0.0276184 -4.09446e-20)
(0.835538 0.0292025 4.46533e-20)
(0.777577 0.0308285 -5.09509e-20)
(0.717902 0.0324945 5.51697e-20)
(0.656644 0.0341995 3.0608e-20)
(0.593951 0.0359425 4.2283e-22)
(0.529996 0.0377153 -3.62929e-20)
(0.465005 0.039483 -1.97056e-20)
(0.399315 0.0411508 4.27381e-20)
(0.333486 0.0425238 -4.50841e-20)
(0.268429 0.0432782 -4.82077e-20)
(0.205523 0.0429625 8.84623e-20)
(0.146675 0.0410398 -5.26694e-20)
(0.0941852 0.0369654 -1.38578e-20)
(0.0504968 0.0302789 1.41774e-20)
(0.0189097 0.0206592 2.9301e-20)
(0.00353522 0.00797195 -2.38378e-20)
(1.14595 0.0759177 -4.33358e-20)
(1.10062 0.0814639 -4.23006e-22)
(1.05335 0.0872865 1.23773e-21)
(1.00386 0.0933557 -6.23406e-20)
(0.952258 0.0996622 7.24283e-20)
(0.898637 0.106207 -7.92549e-20)
(0.843082 0.112981 4.45956e-20)
(0.785696 0.119975 0)
(0.726598 0.127176 0)
(0.665918 0.134567 2.99089e-20)
(0.603804 0.142119 -3.38516e-20)
(0.540424 0.149758 1.08056e-19)
(0.475989 0.157284 1.97016e-20)
(0.410809 0.164249 0)
(0.345387 0.169811 0)
(0.280547 0.172648 0)
(0.217547 0.170988 1.25754e-20)
(0.158154 0.162788 0)
(0.104521 0.146039 -1.22704e-19)
(0.058966 0.119098 1.26234e-19)
(0.0246987 0.0809008 -2.86149e-20)
(0.00578671 0.0311179 -9.48333e-20)
(1.15454 0.131519 0)
(1.11015 0.141264 1.44188e-19)
(1.0641 0.151425 5.52734e-20)
(1.01577 0.161995 -1.26347e-19)
(0.965331 0.172966 1.38693e-19)
(0.912885 0.184343 0)
(0.858514 0.196121 -4.45103e-20)
(0.802325 0.208287 9.94953e-20)
(0.744434 0.22082 -1.07746e-19)
(0.684972 0.233693 -1.19623e-19)
(0.624082 0.246854 0)
(0.56192 0.260164 -1.06363e-19)
(0.498669 0.273265 2.31125e-19)
(0.434576 0.285362 -8.28388e-20)
(0.370025 0.29498 -1.77073e-19)
(0.305652 0.299814 1.85898e-19)
(0.242465 0.296791 1.96855e-19)
(0.181935 0.282388 -2.04568e-19)
(0.125921 0.253155 -5.24367e-20)
(0.0764861 0.206293 2.70849e-20)
(0.0366622 0.140019 2.86136e-20)
(0.0104357 0.0538198 9.29715e-20)
(1.16653 0.184394 -1.62189e-19)
(1.12367 0.198217 -9.52826e-20)
(1.07956 0.212575 -1.0594e-19)
(1.03307 0.227529 3.39449e-21)
(0.984463 0.243054 -2.74579e-19)
(0.933852 0.259162 -3.90792e-21)
(0.881318 0.275844 2.55272e-19)
(0.826974 0.293081 0)
(0.770937 0.310847 0)
(0.713339 0.329102 -2.91253e-19)
(0.654317 0.347768 -4.20916e-21)
(0.594014 0.366646 3.45503e-19)
(0.532569 0.385222 -1.52951e-19)
(0.470133 0.402361 3.18464e-19)
(0.406912 0.415968 -1.70283e-19)
(0.343261 0.42278 0)
(0.279808 0.418457 0)
(0.217585 0.39804 0)
(0.158006 0.356695 5.24008e-20)
(0.102756 0.290527 -7.92121e-20)
(0.0546001 0.197084 2.20298e-19)
(0.0174029 0.0757091 -3.59883e-19)
(1.18192 0.234688 -1.57975e-19)
(1.14109 0.25246 3.66445e-19)
(1.09956 0.270819 -9.98604e-20)
(1.05551 0.289952 3.58372e-21)
(1.00934 0.309818 1.34641e-19)
(0.961164 0.330432 -1.47365e-19)
(0.911072 0.351785 -8.45709e-20)
(0.859179 0.373857 0)
(0.805608 0.396614 1.0036e-19)
(0.750488 0.420008 1.14383e-19)
(0.693955 0.443939 0)
(0.636127 0.468149 0)
(0.577091 0.491976 7.54082e-20)
(0.516867 0.513959 -6.9541e-19)
(0.455426 0.531404 3.2703e-19)
(0.392749 0.540122 0)
(0.328964 0.534553 -8.87401e-20)
(0.26452 0.508365 9.25416e-20)
(0.200247 0.45541 2.45725e-19)
(0.137336 0.37077 -1.51371e-19)
(0.0782067 0.251393 -2.61814e-19)
(0.0265656 0.0965146 1.7212e-19)
(1.20025 0.281109 0)
(1.162 0.302661 3.52168e-19)
(1.12366 0.324785 -1.97637e-19)
(1.08263 0.347868 1.15206e-19)
(1.03948 0.371837 -2.58384e-19)
(0.994319 0.396709 2.82835e-19)
(0.947246 0.42248 3.22771e-19)
(0.898385 0.449125 -3.50973e-19)
(0.84786 0.476608 -2.97299e-19)
(0.795802 0.50487 3.24839e-19)
(0.742339 0.533796 1.17528e-19)
(0.687568 0.563074 -2.52691e-19)
(0.631506 0.591903 5.48513e-19)
(0.574021 0.618516 -2.91892e-19)
(0.514789 0.63965 3.12158e-19)
(0.453331 0.650229 -3.28048e-19)
(0.389157 0.643535 1.72004e-19)
(0.321999 0.61193 2.67415e-19)
(0.251974 0.548036 -4.2032e-19)
(0.179673 0.446002 -4.64977e-20)
(0.1071 0.302252 4.97143e-19)
(0.0377702 0.115967 -1.62288e-19)
(1.2211 0.323083 -1.49185e-19)
(1.18591 0.348188 1.61464e-22)
(1.15132 0.373782 -1.88779e-19)
(1.11383 0.400524 0)
(1.07421 0.428299 2.45831e-19)
(1.03259 0.457128 -1.36416e-19)
(0.989063 0.487009 0)
(0.943763 0.517916 3.39187e-19)
(0.896822 0.549807 -3.67583e-19)
(0.848372 0.58262 1.04176e-19)
(0.798532 0.61622 -2.21028e-19)
(0.747375 0.650251 0)
(0.694836 0.683788 -1.32561e-19)
(0.640603 0.71478 2.75804e-19)
(0.584007 0.739433 -5.83657e-19)
(0.524029 0.75184 3.07295e-19)
(0.459447 0.744183 -1.6069e-19)
(0.389148 0.707603 -3.35258e-19)
(0.312414 0.633581 -4.32881e-22)
(0.229141 0.515425 3.18651e-19)
(0.140853 0.349127 -4.18912e-19)
(0.0508485 0.133868 3.04494e-19)
(1.24378 0.359921 0)
(1.21214 0.388339 1.63622e-19)
(1.18181 0.417095 1.76685e-19)
(1.14836 0.447179 2.06723e-19)
(1.11277 0.478419 -2.27022e-19)
(1.07517 0.510842 -1.31579e-19)
(1.03567 0.544455 -1.49345e-19)
(0.994411 0.579232 3.13294e-19)
(0.951532 0.615134 -1.68464e-19)
(0.907167 0.652097 3.82471e-19)
(0.861434 0.689976 -5.04674e-19)
(0.814378 0.728382 0)
(0.765851 0.766282 0)
(0.715338 0.801374 0)
(0.661787 0.829376 0)
(0.603558 0.843608 0)
(0.538595 0.835224 7.71797e-20)
(0.46482 0.794222 -7.3499e-20)
(0.380562 0.711037 0)
(0.284933 0.578237 7.61342e-21)
(0.178925 0.391476 0)
(0.0655878 0.150007 2.81547e-19)
(1.26754 0.391055 5.17803e-19)
(1.23991 0.422463 2.94255e-19)
(1.21424 0.454017 -3.47265e-19)
(1.1852 0.487093 1.89889e-19)
(1.15403 0.52145 2.17231e-19)
(1.12086 0.557122 -4.70691e-19)
(1.08581 0.594118 -4.05793e-19)
(1.04903 0.632409 2.92177e-19)
(1.01067 0.671955 1.08755e-20)
(0.97086 0.712689 0)
(0.92972 0.754459 1.98134e-19)
(0.887261 0.79685 -1.97863e-19)
(0.843247 0.838746 2.20337e-19)
(0.796945 0.877628 -2.34169e-19)
(0.746877 0.908782 0)
(0.690716 0.924822 1.23003e-19)
(0.62547 0.915953 2.68205e-19)
(0.547979 0.871119 -2.06429e-19)
(0.455516 0.779806 0)
(0.346331 0.633947 3.75196e-19)
(0.220835 0.428965 -2.33039e-19)
(0.0818026 0.164265 0)
(1.29149 0.416356 -2.53415e-19)
(1.26834 0.450486 -4.68185e-21)
(1.24774 0.484498 -3.15876e-19)
(1.22353 0.520175 0)
(1.19717 0.5572 3.96076e-19)
(1.16879 0.595632 8.87418e-21)
(1.13852 0.635493 2.38464e-19)
(1.10653 0.67677 0)
(1.073 0.719428 1.54295e-19)
(1.03806 0.763405 0)
(1.00184 0.808554 1.8238e-19)
(0.964325 0.854447 -1.79566e-19)
(0.925194 0.89991 0)
(0.883496 0.942251 -4.21739e-19)
(0.837304 0.976381 2.25413e-19)
(0.783548 0.994272 1.10831e-19)
(0.71821 0.985252 2.38695e-19)
(0.636934 0.93729 -2.49129e-19)
(0.535822 0.839018 0)
(0.41219 0.681847 0)
(0.265825 0.461096 -4.06287e-19)
(0.0991967 0.176439 2.25504e-19)
(1.31473 0.435332 0)
(1.29639 0.471745 2.5686e-19)
(1.28103 0.507839 -1.4969e-19)
(1.26186 0.545799 1.64861e-19)
(1.24057 0.585205 -3.7086e-19)
(1.21729 0.626115 -1.98662e-19)
(1.19215 0.668548 -4.5421e-19)
(1.16535 0.712488 1.01747e-20)
(1.13706 0.757905 -2.7115e-19)
(1.10743 0.80474 0)
(1.07657 0.852851 1.43782e-20)
(1.04445 0.901805 -1.76287e-19)
(1.01068 0.950393 5.31414e-19)
(0.974067 0.995791 -8.93735e-20)
(0.93221 1.0326 0)
(0.881239 1.05223 2.02409e-19)
(0.816022 1.04323 -2.12513e-19)
(0.73091 0.992706 0)
(0.620754 0.88855 0)
(0.481885 0.721771 -2.2653e-19)
(0.313451 0.487721 2.96025e-19)
(0.117594 0.186473 4.52154e-20)
(1.33634 0.448801 2.17885e-19)
(1.3234 0.487303 -4.86895e-19)
(1.31364 0.525071 -2.73204e-19)
(1.29981 0.564756 2.97373e-19)
(1.28378 0.605897 1.76638e-19)
(1.2657 0.648597 3.77715e-19)
(1.24577 0.6929 1.58649e-20)
(1.2242 0.738804 2.36214e-19)
(1.2012 0.78629 2.35973e-19)
(1.17692 0.835311 0)
(1.1515 0.885738 1.39574e-20)
(1.1249 0.93716 -1.59294e-19)
(1.09666 0.988367 -3.59317e-21)
(1.06539 1.03646 2.37528e-19)
(1.02822 1.07579 -8.96374e-21)
(0.980471 1.09728 -1.02408e-20)
(0.91581 1.08875 -1.06486e-20)
(0.827175 1.03646 -2.74966e-19)
(0.70804 0.927666 -3.73466e-19)
(0.553678 0.753105 2.34689e-19)
(0.362583 0.508367 0)
(0.136555 0.194155 -2.10952e-19)
(1.35536 0.455573 -2.0229e-19)
(1.34785 0.495713 4.60086e-19)
(1.34358 0.535059 -2.55528e-19)
(1.33527 0.57645 -2.84909e-19)
(1.3248 0.619315 0)
(1.31231 0.663754 -1.79053e-19)
(1.29801 0.709823 1.96495e-19)
(1.28213 0.757528 1.96897e-19)
(1.26488 0.806862 -2.32256e-19)
(1.24644 0.857787 2.36435e-19)
(1.22695 0.910183 -2.41634e-19)
(1.20635 0.963648 0)
(1.18412 1.01698 1.73663e-20)
(1.15866 1.06721 -1.54464e-19)
(1.1266 1.10852 2.21341e-19)
(1.08236 1.1314 -3.75434e-19)
(1.01837 1.12309 0)
(0.926088 1.06922 8.34207e-20)