/*--------------------------------*- C++ -*----------------------------------*\
| =========                 |                                                 |
| \\      /  F ield         | OpenFOAM Extend Project: Open source CFD        |
|  \\    /   O peration     | Version:  1.6-ext                               |
|   \\  /    A nd           | Web:      www.extend-project.de                 |
|    \\/     M anipulation  |                                                 |
\*---------------------------------------------------------------------------*/
FoamFile
{
    version     2.0;
    format      ascii;
    class       volScalarField::DimensionedInternalField;
    location    "0.2";
    object      V0;
}
// * * * * * * * * * * * * * * * * * * * * * * * * * * * * * * * * * * * * * //

dimensions      [0 3 0 0 0 0 0];

value           nonuniform List<scalar> 
20940
(
1.17103e-06
1.038e-06
9.20958e-07
8.17922e-07
7.2715e-07
6.47125e-07
5.76522e-07
5.14182e-07
4.59093e-07
4.10371e-07
3.67243e-07
3.29032e-07
2.95147e-07
2.65069e-07
2.38343e-07
2.14571e-07
1.93405e-07
1.74537e-07
1.57699e-07
1.42656e-07
1.29201e-07
1.17154e-07
1.17118e-06
1.03813e-06
9.21076e-07
8.18026e-07
7.27243e-07
6.4721e-07
5.766e-07
5.14256e-07
4.59164e-07
4.1044e-07
3.67309e-07
3.29094e-07
2.95204e-07
2.6512e-07
2.3839e-07
2.14614e-07
1.93444e-07
1.74575e-07
1.57736e-07
1.42692e-07
1.29237e-07
1.17188e-07
1.17375e-06
1.04041e-06
9.23097e-07
8.19822e-07
7.28841e-07
6.48634e-07
5.77872e-07
5.15394e-07
4.60184e-07
4.11356e-07
3.68135e-07
3.2984e-07
2.95877e-07
2.65729e-07
2.38938e-07
2.15109e-07
1.93891e-07
1.74979e-07
1.58103e-07
1.43027e-07
1.29544e-07
1.1747e-07
1.17802e-06
1.04419e-06
9.2645e-07
8.22803e-07
7.31495e-07
6.50999e-07
5.79982e-07
5.17278e-07
4.61869e-07
4.12865e-07
3.69488e-07
3.31056e-07
2.96974e-07
2.66718e-07
2.39833e-07
2.15917e-07
1.94622e-07
1.75639e-07
1.58701e-07
1.43569e-07
1.30037e-07
1.1792e-07
1.18326e-06
1.04887e-06
9.30638e-07
8.26556e-07
7.34864e-07
6.54029e-07
5.82709e-07
5.19736e-07
4.64087e-07
4.14869e-07
3.71299e-07
3.32696e-07
2.9846e-07
2.68069e-07
2.41062e-07
2.17039e-07
1.95646e-07
1.76575e-07
1.59555e-07
1.44349e-07
1.30749e-07
1.18571e-07
1.19008e-06
1.05498e-06
9.36113e-07
8.3147e-07
7.39284e-07
6.58012e-07
5.86307e-07
5.22991e-07
4.67036e-07
4.17543e-07
3.73727e-07
3.34902e-07
3.00466e-07
2.69895e-07
2.42727e-07
2.18559e-07
1.97036e-07
1.77848e-07
1.60721e-07
1.45417e-07
1.31727e-07
1.19466e-07
1.19844e-06
1.0625e-06
9.42888e-07
8.37574e-07
7.44788e-07
6.62982e-07
5.90804e-07
5.27069e-07
4.70742e-07
4.20918e-07
3.76805e-07
3.37711e-07
3.03033e-07
2.72241e-07
2.44873e-07
2.20523e-07
1.98836e-07
1.79498e-07
1.62237e-07
1.4681e-07
1.33008e-07
1.20644e-07
1.20837e-06
1.07148e-06
9.51024e-07
8.44948e-07
7.51472e-07
6.69042e-07
5.96301e-07
5.32061e-07
4.75283e-07
4.25057e-07
3.80586e-07
3.41173e-07
3.06207e-07
2.75154e-07
2.47547e-07
2.2298e-07
2.01093e-07
1.81573e-07
1.64146e-07
1.4857e-07
1.34631e-07
1.22143e-07
1.21976e-06
1.08185e-06
9.60466e-07
8.53562e-07
7.59337e-07
6.76226e-07
6.02862e-07
5.3805e-07
4.80751e-07
4.3005e-07
3.85151e-07
3.45354e-07
3.10044e-07
2.78683e-07
2.50798e-07
2.25976e-07
2.03857e-07
1.84124e-07
1.66501e-07
1.50745e-07
1.36642e-07
1.24003e-07
1.23251e-06
1.09349e-06
9.71127e-07
8.63335e-07
7.68311e-07
6.84476e-07
6.10452e-07
5.45035e-07
4.87175e-07
4.35957e-07
3.90578e-07
3.50338e-07
3.14625e-07
2.82898e-07
2.54684e-07
2.29565e-07
2.07176e-07
1.87197e-07
1.69347e-07
1.5338e-07
1.39083e-07
1.26265e-07
1.24641e-06
1.10627e-06
9.82874e-07
8.74151e-07
7.78283e-07
6.93683e-07
6.18965e-07
5.52916e-07
4.94476e-07
4.42722e-07
3.96845e-07
3.56138e-07
3.19986e-07
2.87851e-07
2.59259e-07
2.33794e-07
2.11091e-07
1.90826e-07
1.72714e-07
1.56506e-07
1.41986e-07
1.2896e-07
1.26196e-06
1.12062e-06
9.96115e-07
8.86372e-07
7.89569e-07
7.04113e-07
6.28614e-07
5.61855e-07
5.02769e-07
4.50425e-07
4.04006e-07
3.62798e-07
3.26178e-07
2.93602e-07
2.64594e-07
2.38738e-07
2.15671e-07
1.9507e-07
1.7665e-07
1.60162e-07
1.45383e-07
1.3212e-07
1.2784e-06
1.1359e-06
1.01034e-06
8.99598e-07
8.01865e-07
7.1554e-07
6.3923e-07
5.71718e-07
5.11939e-07
4.58957e-07
4.11955e-07
3.70212e-07
3.33099e-07
3.00065e-07
2.70627e-07
2.44366e-07
2.20912e-07
1.99945e-07
1.81183e-07
1.64376e-07
1.49304e-07
1.3577e-07
1.29572e-06
1.15213e-06
1.02553e-06
9.13824e-07
8.15183e-07
7.28003e-07
6.50885e-07
5.82607e-07
5.22102e-07
4.68437e-07
4.20795e-07
3.78461e-07
3.40803e-07
3.07267e-07
2.77366e-07
2.50673e-07
2.26815e-07
2.05464e-07
1.86335e-07
1.69181e-07
1.5378e-07
1.39939e-07
1.31368e-06
1.16907e-06
1.0415e-06
9.28876e-07
8.29356e-07
7.41343e-07
6.63437e-07
5.94412e-07
5.33194e-07
4.78846e-07
4.3055e-07
3.87592e-07
3.49343e-07
3.15255e-07
2.8484e-07
2.57672e-07
2.33373e-07
2.11611e-07
1.92096e-07
1.74574e-07
1.58822e-07
1.44648e-07
1.24204e-06
1.10795e-06
9.89471e-07
8.84689e-07
7.91937e-07
7.09757e-07
6.36875e-07
5.72175e-07
5.14677e-07
4.63523e-07
4.17962e-07
3.77334e-07
3.41066e-07
3.08655e-07
2.7966e-07
2.53693e-07
2.3041e-07
2.09508e-07
1.90718e-07
1.73802e-07
1.58554e-07
1.44791e-07
1.21894e-06
1.08683e-06
9.70137e-07
8.66971e-07
7.75682e-07
6.94828e-07
6.23149e-07
5.59543e-07
5.03043e-07
4.52804e-07
4.08082e-07
3.68225e-07
3.32661e-07
3.00892e-07
2.7248e-07
2.47043e-07
2.24244e-07
2.03788e-07
1.85412e-07
1.68884e-07
1.53998e-07
1.40573e-07
1.19697e-06
1.06679e-06
9.51841e-07
8.50247e-07
7.6038e-07
6.80812e-07
6.10296e-07
5.47741e-07
4.92194e-07
4.4282e-07
3.98888e-07
3.59755e-07
3.24857e-07
2.93698e-07
2.65845e-07
2.40917e-07
2.18581e-07
1.98546e-07
1.80554e-07
1.6438e-07
1.49822e-07
1.36702e-07
1.17627e-06
1.04796e-06
9.34681e-07
8.34597e-07
7.46091e-07
6.67753e-07
5.98348e-07
5.36799e-07
4.82162e-07
4.3361e-07
3.90422e-07
3.51965e-07
3.17685e-07
2.87093e-07
2.5976e-07
2.35309e-07
2.13411e-07
1.93774e-07
1.76144e-07
1.60296e-07
1.46036e-07
1.33188e-07
1.15697e-06
1.03044e-06
9.18759e-07
8.20106e-07
7.32886e-07
6.55705e-07
5.87346e-07
5.26741e-07
4.72959e-07
4.25181e-07
3.82693e-07
3.4487e-07
3.11163e-07
2.81092e-07
2.54234e-07
2.30218e-07
2.08719e-07
1.89449e-07
1.72154e-07
1.56612e-07
1.42629e-07
1.30033e-07
1.13887e-06
1.01406e-06
9.03918e-07
8.06641e-07
7.20654e-07
6.4458e-07
5.77214e-07
5.17504e-07
4.64527e-07
4.17477e-07
3.75648e-07
3.3842e-07
3.05252e-07
2.75667e-07
2.49249e-07
2.25633e-07
2.04496e-07
1.85557e-07
1.68567e-07
1.53306e-07
1.39581e-07
1.27222e-07
1.12281e-06
9.99526e-07
8.90754e-07
7.94704e-07
7.09816e-07
6.34727e-07
5.68246e-07
5.09331e-07
4.57071e-07
4.10667e-07
3.69421e-07
3.32721e-07
3.0003e-07
2.70878e-07
2.44853e-07
2.21592e-07
2.00778e-07
1.82132e-07
1.65409e-07
1.50393e-07
1.36895e-07
1.24744e-07
1.10816e-06
9.86311e-07
8.78817e-07
7.83908e-07
7.00039e-07
6.25861e-07
5.60197e-07
5.02014e-07
4.50411e-07
4.04598e-07
3.63885e-07
3.27665e-07
2.95408e-07
2.66649e-07
2.40979e-07
2.18041e-07
1.97519e-07
1.79139e-07
1.62656e-07
1.47858e-07
1.34556e-07
1.22586e-07
1.09513e-06
9.74586e-07
8.68246e-07
7.74365e-07
6.91413e-07
6.18056e-07
5.53124e-07
4.95597e-07
4.44582e-07
3.99296e-07
3.59056e-07
3.23262e-07
2.91388e-07
2.62975e-07
2.37619e-07
2.14964e-07
1.947e-07
1.76552e-07
1.60281e-07
1.45675e-07
1.32547e-07
1.20734e-07
1.08374e-06
9.64342e-07
8.59027e-07
7.66057e-07
6.83918e-07
6.11284e-07
5.46999e-07
4.9005e-07
4.39551e-07
3.94729e-07
3.54904e-07
3.19483e-07
2.87944e-07
2.59833e-07
2.34748e-07
2.12338e-07
1.92296e-07
1.74349e-07
1.58261e-07
1.4382e-07
1.30843e-07
1.19168e-07
1.07395e-06
9.55556e-07
8.51133e-07
7.58956e-07
6.77521e-07
6.05514e-07
5.41788e-07
4.85338e-07
4.35285e-07
3.90862e-07
3.51395e-07
3.16294e-07
2.85043e-07
2.5719e-07
2.32338e-07
2.10138e-07
1.90284e-07
1.72508e-07
1.56574e-07
1.42273e-07
1.29424e-07
1.17864e-07
1.06571e-06
9.48176e-07
8.44512e-07
7.53008e-07
6.72171e-07
6.00697e-07
5.37445e-07
4.81416e-07
4.31741e-07
3.87653e-07
3.48487e-07
3.13656e-07
2.82647e-07
2.55011e-07
2.30354e-07
2.08329e-07
1.88634e-07
1.71e-07
1.55194e-07
1.41009e-07
1.28265e-07
1.168e-07
1.05897e-06
9.42139e-07
8.39101e-07
7.48153e-07
6.6781e-07
5.96774e-07
5.33912e-07
4.78232e-07
4.28865e-07
3.85055e-07
3.46135e-07
3.11525e-07
2.80713e-07
2.53255e-07
2.28756e-07
2.06876e-07
1.87308e-07
1.69791e-07
1.54089e-07
1.4e-07
1.2734e-07
1.15952e-07
1.05371e-06
9.37433e-07
8.34884e-07
7.4437e-07
6.64412e-07
5.93718e-07
5.3116e-07
4.7575e-07
4.26626e-07
3.83031e-07
3.44304e-07
3.09866e-07
2.79209e-07
2.51888e-07
2.27514e-07
2.05745e-07
1.86278e-07
1.68851e-07
1.53231e-07
1.39215e-07
1.26622e-07
1.15295e-07
1.04937e-06
9.33556e-07
8.31417e-07
7.41266e-07
6.61631e-07
5.91224e-07
5.2892e-07
4.73737e-07
4.24814e-07
3.81398e-07
3.42831e-07
3.08535e-07
2.78005e-07
2.50799e-07
2.26527e-07
2.04849e-07
1.85465e-07
1.68113e-07
1.52561e-07
1.38607e-07
1.26072e-07
1.14796e-07
1.17425e-06
1.04679e-06
9.3418e-07
8.34606e-07
7.46485e-07
6.68434e-07
5.99237e-07
5.37834e-07
4.83294e-07
4.34802e-07
3.91643e-07
3.5319e-07
3.18894e-07
2.88271e-07
2.60898e-07
2.36402e-07
2.14455e-07
1.94769e-07
1.77091e-07
1.61196e-07
1.46888e-07
1.33993e-07
1.17454e-06
1.04706e-06
9.34436e-07
8.34845e-07
7.4671e-07
6.68644e-07
5.99434e-07
5.38018e-07
4.83467e-07
4.34963e-07
3.91794e-07
3.53331e-07
3.19026e-07
2.88395e-07
2.61013e-07
2.3651e-07
2.14555e-07
1.94863e-07
1.77179e-07
1.61278e-07
1.46965e-07
1.34064e-07
1.17729e-06
1.04954e-06
9.36663e-07
8.36856e-07
7.48528e-07
6.70289e-07
6.00924e-07
5.3937e-07
4.84694e-07
4.36079e-07
3.92809e-07
3.54256e-07
3.1987e-07
2.89165e-07
2.61718e-07
2.37154e-07
2.15146e-07
1.95404e-07
1.77675e-07
1.61733e-07
1.47383e-07
1.3445e-07
1.18188e-06
1.05366e-06
9.40371e-07
8.40193e-07
7.51534e-07
6.73001e-07
6.03373e-07
5.41585e-07
4.86699e-07
4.37896e-07
3.94458e-07
3.55754e-07
3.21232e-07
2.90405e-07
2.62848e-07
2.38185e-07
2.16088e-07
1.96265e-07
1.78463e-07
1.62456e-07
1.48045e-07
1.35058e-07
1.18772e-06
1.05894e-06
9.45142e-07
8.44513e-07
7.55451e-07
6.76555e-07
6.06603e-07
5.44523e-07
4.89374e-07
4.40336e-07
3.96684e-07
3.57788e-07
3.23092e-07
2.92108e-07
2.64408e-07
2.39616e-07
2.17401e-07
1.97472e-07
1.79572e-07
1.63476e-07
1.48985e-07
1.35923e-07
1.19546e-06
1.06593e-06
9.51479e-07
8.50258e-07
7.60664e-07
6.81293e-07
6.10913e-07
5.48447e-07
4.92952e-07
4.43601e-07
3.99667e-07
3.60516e-07
3.25589e-07
2.94395e-07
2.66506e-07
2.41541e-07
2.1917e-07
1.99098e-07
1.81069e-07
1.64854e-07
1.50256e-07
1.37095e-07
1.20509e-06
1.07467e-06
9.59408e-07
8.57464e-07
7.6722e-07
6.87264e-07
6.16357e-07
5.53417e-07
4.97493e-07
4.47754e-07
4.03469e-07
3.64e-07
3.28784e-07
2.97329e-07
2.69201e-07
2.4402e-07
2.21451e-07
2.01199e-07
1.83004e-07
1.6664e-07
1.51903e-07
1.38616e-07
1.21671e-06
1.08523e-06
9.69023e-07
8.66225e-07
7.75211e-07
6.9456e-07
6.23026e-07
5.59518e-07
5.03081e-07
4.52875e-07
4.08168e-07
3.68315e-07
3.3275e-07
3.00977e-07
2.72559e-07
2.47113e-07
2.24302e-07
2.03829e-07
1.85432e-07
1.68882e-07
1.53975e-07
1.40532e-07
1.23038e-06
1.09769e-06
9.80394e-07
8.76612e-07
7.8471e-07
7.03255e-07
6.30993e-07
5.66824e-07
5.09786e-07
4.59036e-07
4.13832e-07
3.73526e-07
3.37549e-07
3.05399e-07
2.76637e-07
2.50876e-07
2.27776e-07
2.07039e-07
1.884e-07
1.71627e-07
1.56515e-07
1.42884e-07
1.24612e-06
1.11208e-06
9.93561e-07
8.88673e-07
7.95768e-07
7.13402e-07
6.40312e-07
5.75391e-07
5.17667e-07
4.66291e-07
4.20517e-07
3.7969e-07
3.43235e-07
3.10648e-07
2.81486e-07
2.55358e-07
2.31921e-07
2.10874e-07
1.9195e-07
1.74915e-07
1.59562e-07
1.45709e-07
1.26376e-06
1.12827e-06
1.00842e-06
9.02332e-07
8.08331e-07
7.24966e-07
6.50964e-07
5.8521e-07
5.26725e-07
4.74651e-07
4.28239e-07
3.86826e-07
3.49834e-07
3.16753e-07
2.87137e-07
2.60591e-07
2.3677e-07
2.15368e-07
1.96118e-07
1.78781e-07
1.6315e-07
1.49039e-07
1.28378e-06
1.14666e-06
1.02534e-06
9.17904e-07
8.22674e-07
7.38187e-07
6.63159e-07
5.96465e-07
5.37119e-07
4.84257e-07
4.3712e-07
3.95042e-07
3.57439e-07
3.23796e-07
2.93661e-07
2.66639e-07
2.42377e-07
2.2057e-07
2.00944e-07
1.83262e-07
1.6731e-07
1.52904e-07
1.30544e-06
1.16665e-06
1.0438e-06
9.34952e-07
8.38434e-07
7.52764e-07
6.76649e-07
6.08955e-07
5.48689e-07
4.94979e-07
4.4706e-07
4.04262e-07
3.65993e-07
3.31735e-07
3.01033e-07
2.73485e-07
2.48738e-07
2.26481e-07
2.06439e-07
1.8837e-07
1.72061e-07
1.57323e-07
1.32884e-06
1.18832e-06
1.06387e-06
9.53558e-07
8.55684e-07
7.68763e-07
6.91493e-07
6.22733e-07
5.61482e-07
5.06861e-07
4.58099e-07
4.1452e-07
3.75528e-07
3.40601e-07
3.09278e-07
2.81154e-07
2.55874e-07
2.33121e-07
2.12619e-07
1.94123e-07
1.77417e-07
1.6231e-07
1.3538e-06
1.21151e-06
1.08543e-06
9.73604e-07
8.74327e-07
7.86105e-07
7.07628e-07
6.37748e-07
5.75457e-07
5.1987e-07
4.70211e-07
4.25798e-07
3.86032e-07
3.50384e-07
3.18392e-07
2.89645e-07
2.63785e-07
2.40493e-07
2.19489e-07
2.00527e-07
1.83386e-07
1.67874e-07
1.3538e-06
1.21151e-06
1.08543e-06
9.73603e-07
8.74326e-07
7.86104e-07
7.07627e-07
6.37747e-07
5.75456e-07
5.19869e-07
4.7021e-07
4.25798e-07
3.86031e-07
3.50384e-07
3.18391e-07
2.89645e-07
2.63785e-07
2.40493e-07
2.19489e-07
2.00526e-07
1.83386e-07
1.67874e-07
1.32884e-06
1.18832e-06
1.06387e-06
9.53553e-07
8.55679e-07
7.68759e-07
6.91489e-07
6.2273e-07
5.61479e-07
5.06858e-07
4.58097e-07
4.14518e-07
3.75526e-07
3.40599e-07
3.09277e-07
2.81153e-07
2.55873e-07
2.3312e-07
2.12618e-07
1.94123e-07
1.77417e-07
1.6231e-07
1.30543e-06
1.16664e-06
1.04379e-06
9.34944e-07
8.38426e-07
7.52757e-07
6.76642e-07
6.08949e-07
5.48684e-07
4.94975e-07
4.47057e-07
4.04258e-07
3.6599e-07
3.31733e-07
3.01031e-07
2.73483e-07
2.48736e-07
2.26479e-07
2.06438e-07
1.88369e-07
1.7206e-07
1.57322e-07
1.28377e-06
1.14665e-06
1.02533e-06
9.17892e-07
8.22663e-07
7.38177e-07
6.6315e-07
5.96457e-07
5.37112e-07
4.84251e-07
4.37115e-07
3.95038e-07
3.57435e-07
3.23793e-07
2.93659e-07
2.66636e-07
2.42375e-07
2.20568e-07
2.00943e-07
1.83261e-07
1.67309e-07
1.52903e-07
1.26374e-06
1.12825e-06
1.00841e-06
9.02316e-07
8.08316e-07
7.24953e-07
6.50952e-07
5.85199e-07
5.26716e-07
4.74644e-07
4.28232e-07
3.8682e-07
3.49829e-07
3.16749e-07
2.87133e-07
2.60588e-07
2.36768e-07
2.15366e-07
1.96116e-07
1.78779e-07
1.63148e-07
1.49037e-07
1.24609e-06
1.11206e-06
9.93541e-07
8.88654e-07
7.9575e-07
7.13386e-07
6.40298e-07
5.75378e-07
5.17656e-07
4.66282e-07
4.20509e-07
3.79683e-07
3.43229e-07
3.10643e-07
2.81481e-07
2.55354e-07
2.31918e-07
2.10871e-07
1.91948e-07
1.74913e-07
1.5956e-07
1.45706e-07
1.23035e-06
1.09767e-06
9.80373e-07
8.76592e-07
7.84691e-07
7.03238e-07
6.30977e-07
5.66809e-07
5.09773e-07
4.59024e-07
4.13822e-07
3.73518e-07
3.37541e-07
3.05392e-07
2.76631e-07
2.50871e-07
2.27772e-07
2.07035e-07
1.88396e-07
1.71624e-07
1.56512e-07
1.42881e-07
1.21669e-06
1.08521e-06
9.69003e-07
8.66206e-07
7.75193e-07
6.94543e-07
6.2301e-07
5.59503e-07
5.03066e-07
4.52862e-07
4.08156e-07
3.68304e-07
3.3274e-07
3.00968e-07
2.72551e-07
2.47106e-07
2.24296e-07
2.03824e-07
1.85428e-07
1.68878e-07
1.53972e-07
1.40529e-07
1.20507e-06
1.07465e-06
9.59391e-07
8.57447e-07
7.67204e-07
6.87248e-07
6.16342e-07
5.53402e-07
4.97478e-07
4.4774e-07
4.03456e-07
3.63987e-07
3.28773e-07
2.97319e-07
2.69192e-07
2.44012e-07
2.21443e-07
2.01192e-07
1.82999e-07
1.66635e-07
1.51899e-07
1.38613e-07
1.19544e-06
1.06592e-06
9.51466e-07
8.50245e-07
7.60651e-07
6.8128e-07
6.109e-07
5.48434e-07
4.92939e-07
4.43587e-07
3.99654e-07
3.60503e-07
3.25576e-07
2.94383e-07
2.66495e-07
2.41531e-07
2.19161e-07
1.9909e-07
1.81062e-07
1.64849e-07
1.5025e-07
1.37091e-07
1.18771e-06
1.05892e-06
9.4513e-07
8.44501e-07
7.55439e-07
6.76544e-07
6.06592e-07
5.44512e-07
4.89364e-07
4.40324e-07
3.96673e-07
3.57776e-07
3.2308e-07
2.92096e-07
2.64396e-07
2.39605e-07
2.17391e-07
1.97462e-07
1.79565e-07
1.6347e-07
1.48981e-07
1.3592e-07
1.18187e-06
1.05365e-06
9.40359e-07
8.4018e-07
7.51521e-07
6.72989e-07
6.03362e-07
5.41574e-07
4.86689e-07
4.37887e-07
3.94449e-07
3.55745e-07
3.21222e-07
2.90395e-07
2.62838e-07
2.38176e-07
2.16078e-07
1.96257e-07
1.78455e-07
1.62449e-07
1.48041e-07
1.35053e-07
1.17728e-06
1.04953e-06
9.36655e-07
8.36846e-07
7.48517e-07
6.70277e-07
6.00913e-07
5.39359e-07
4.84684e-07
4.3607e-07
3.92801e-07
3.54249e-07
3.19863e-07
2.89158e-07
2.61711e-07
2.37147e-07
2.15139e-07
1.95398e-07
1.77668e-07
1.61729e-07
1.47378e-07
1.34446e-07
1.17455e-06
1.04707e-06
9.34439e-07
8.34846e-07
7.46708e-07
6.68639e-07
5.99427e-07
5.3801e-07
4.83458e-07
4.34955e-07
3.91787e-07
3.53326e-07
3.19022e-07
2.88392e-07
2.61011e-07
2.36507e-07
2.14554e-07
1.9486e-07
1.77176e-07
1.61274e-07
1.46961e-07
1.34061e-07
1.17427e-06
1.04681e-06
9.34196e-07
8.34619e-07
7.46496e-07
6.68441e-07
5.99241e-07
5.37835e-07
4.83293e-07
4.34799e-07
3.91639e-07
3.53187e-07
3.18891e-07
2.8827e-07
2.60898e-07
2.36403e-07
2.14456e-07
1.9477e-07
1.77091e-07
1.61195e-07
1.46885e-07
1.33989e-07
1.17432e-06
1.04685e-06
9.34236e-07
8.34657e-07
7.46532e-07
6.68475e-07
5.99274e-07
5.37866e-07
4.83321e-07
4.34825e-07
3.91663e-07
3.53208e-07
3.18911e-07
2.88287e-07
2.60913e-07
2.36416e-07
2.14468e-07
1.9478e-07
1.771e-07
1.61203e-07
1.46893e-07
1.33996e-07
1.1746e-06
1.04712e-06
9.34482e-07
8.34887e-07
7.46746e-07
6.68675e-07
5.99461e-07
5.38041e-07
4.83486e-07
4.3498e-07
3.9181e-07
3.53346e-07
3.1904e-07
2.88407e-07
2.61025e-07
2.3652e-07
2.14564e-07
1.94871e-07
1.77185e-07
1.61283e-07
1.46968e-07
1.34067e-07
1.17733e-06
1.04957e-06
9.36698e-07
8.36887e-07
7.48554e-07
6.70312e-07
6.00944e-07
5.39388e-07
4.84709e-07
4.36093e-07
3.92822e-07
3.54268e-07
3.19879e-07
2.89173e-07
2.61724e-07
2.37159e-07
2.1515e-07
1.95407e-07
1.77678e-07
1.61736e-07
1.47386e-07
1.34452e-07
1.18191e-06
1.05369e-06
9.40398e-07
8.40217e-07
7.51555e-07
6.7302e-07
6.0339e-07
5.416e-07
4.86712e-07
4.37907e-07
3.94467e-07
3.55761e-07
3.21237e-07
2.90409e-07
2.6285e-07
2.38187e-07
2.16088e-07
1.96266e-07
1.78463e-07
1.62457e-07
1.48047e-07
1.3506e-07
1.18774e-06
1.05896e-06
9.45164e-07
8.44533e-07
7.55468e-07
6.76571e-07
6.06617e-07
5.44535e-07
4.89384e-07
4.40343e-07
3.9669e-07
3.57792e-07
3.23093e-07
2.92109e-07
2.64407e-07
2.39616e-07
2.174e-07
1.97472e-07
1.79572e-07
1.63477e-07
1.48987e-07
1.35925e-07
1.19548e-06
1.06595e-06
9.51495e-07
8.50273e-07
7.60677e-07
6.81304e-07
6.10922e-07
5.48455e-07
4.92958e-07
4.43604e-07
3.9967e-07
3.60517e-07
3.25589e-07
2.94395e-07
2.66506e-07
2.41541e-07
2.1917e-07
1.99098e-07
1.8107e-07
1.64855e-07
1.50257e-07
1.37097e-07
1.2051e-06
1.07468e-06
9.59417e-07
8.57472e-07
7.67228e-07
6.8727e-07
6.16362e-07
5.53421e-07
4.97496e-07
4.47755e-07
4.0347e-07
3.64001e-07
3.28785e-07
2.9733e-07
2.69201e-07
2.44021e-07
2.21451e-07
2.012e-07
1.83005e-07
1.66642e-07
1.51904e-07
1.38618e-07
1.21671e-06
1.08524e-06
9.69026e-07
8.66228e-07
7.75214e-07
6.94563e-07
6.23028e-07
5.5952e-07
5.03082e-07
4.52877e-07
4.0817e-07
3.68316e-07
3.32751e-07
3.00978e-07
2.72561e-07
2.47115e-07
2.24304e-07
2.0383e-07
1.85435e-07
1.68883e-07
1.53978e-07
1.40534e-07
1.23038e-06
1.09769e-06
9.80394e-07
8.76612e-07
7.84711e-07
7.03256e-07
6.30994e-07
5.66825e-07
5.09788e-07
4.59037e-07
4.13834e-07
3.73529e-07
3.37552e-07
3.05401e-07
2.7664e-07
2.50879e-07
2.27779e-07
2.07041e-07
1.88402e-07
1.71629e-07
1.56517e-07
1.42886e-07
1.24611e-06
1.11208e-06
9.9356e-07
8.88673e-07
7.95768e-07
7.13403e-07
6.40314e-07
5.75393e-07
5.17669e-07
4.66294e-07
4.2052e-07
3.79693e-07
3.43239e-07
3.10652e-07
2.81489e-07
2.55362e-07
2.31925e-07
2.10878e-07
1.91953e-07
1.74918e-07
1.59565e-07
1.45711e-07
1.26376e-06
1.12827e-06
1.00842e-06
9.02333e-07
8.08332e-07
7.24968e-07
6.50967e-07
5.85213e-07
5.26728e-07
4.74655e-07
4.28243e-07
3.8683e-07
3.49838e-07
3.16757e-07
2.87141e-07
2.60595e-07
2.36774e-07
2.15372e-07
1.96121e-07
1.78784e-07
1.63153e-07
1.49042e-07
1.28378e-06
1.14667e-06
1.02535e-06
9.17908e-07
8.22678e-07
7.38191e-07
6.63163e-07
5.9647e-07
5.37124e-07
4.84262e-07
4.37125e-07
3.95047e-07
3.57443e-07
3.23801e-07
2.93666e-07
2.66643e-07
2.42381e-07
2.20574e-07
2.00948e-07
1.83265e-07
1.67313e-07
1.52906e-07
1.30544e-06
1.16666e-06
1.0438e-06
9.34959e-07
8.3844e-07
7.5277e-07
6.76655e-07
6.08961e-07
5.48695e-07
4.94985e-07
4.47066e-07
4.04267e-07
3.65998e-07
3.3174e-07
3.01038e-07
2.73489e-07
2.48742e-07
2.26484e-07
2.06442e-07
1.88373e-07
1.72064e-07
1.57325e-07
1.32885e-06
1.18833e-06
1.06388e-06
9.53567e-07
8.55692e-07
7.68771e-07
6.91501e-07
6.22741e-07
5.61489e-07
5.06867e-07
4.58105e-07
4.14526e-07
3.75534e-07
3.40606e-07
3.09283e-07
2.81159e-07
2.55878e-07
2.33125e-07
2.12623e-07
1.94127e-07
1.77421e-07
1.62313e-07
1.35381e-06
1.21153e-06
1.08544e-06
9.73615e-07
8.74338e-07
7.86115e-07
7.07638e-07
6.37757e-07
5.75465e-07
5.19878e-07
4.70219e-07
4.25805e-07
3.86038e-07
3.5039e-07
3.18397e-07
2.8965e-07
2.6379e-07
2.40497e-07
2.19493e-07
2.0053e-07
1.83389e-07
1.67877e-07
1.35381e-06
1.21153e-06
1.08544e-06
9.73616e-07
8.74338e-07
7.86116e-07
7.07638e-07
6.37757e-07
5.75465e-07
5.19878e-07
4.70219e-07
4.25805e-07
3.86038e-07
3.5039e-07
3.18397e-07
2.8965e-07
2.63789e-07
2.40497e-07
2.19493e-07
2.0053e-07
1.83389e-07
1.67876e-07
1.32886e-06
1.18833e-06
1.06388e-06
9.53569e-07
8.55694e-07
7.68773e-07
6.91502e-07
6.22742e-07
5.6149e-07
5.06868e-07
4.58106e-07
4.14526e-07
3.75534e-07
3.40606e-07
3.09283e-07
2.81159e-07
2.55878e-07
2.33125e-07
2.12622e-07
1.94126e-07
1.7742e-07
1.62313e-07
1.30545e-06
1.16666e-06
1.04381e-06
9.34963e-07
8.38444e-07
7.52773e-07
6.76657e-07
6.08963e-07
5.48696e-07
4.94986e-07
4.47067e-07
4.04267e-07
3.65998e-07
3.3174e-07
3.01037e-07
2.73489e-07
2.48741e-07
2.26484e-07
2.06442e-07
1.88373e-07
1.72064e-07
1.57325e-07
1.28379e-06
1.14667e-06
1.02535e-06
9.17914e-07
8.22683e-07
7.38195e-07
6.63167e-07
5.96472e-07
5.37126e-07
4.84263e-07
4.37126e-07
3.95047e-07
3.57443e-07
3.238e-07
2.93665e-07
2.66642e-07
2.4238e-07
2.20573e-07
2.00947e-07
1.83264e-07
1.67313e-07
1.52906e-07
1.26377e-06
1.12828e-06
1.00843e-06
9.0234e-07
8.08339e-07
7.24974e-07
6.50971e-07
5.85216e-07
5.2673e-07
4.74657e-07
4.28244e-07
3.8683e-07
3.49838e-07
3.16757e-07
2.8714e-07
2.60594e-07
2.36773e-07
2.15371e-07
1.9612e-07
1.78783e-07
1.63152e-07
1.49041e-07
1.24613e-06
1.11209e-06
9.93569e-07
8.88681e-07
7.95775e-07
7.13409e-07
6.40319e-07
5.75396e-07
5.17672e-07
4.66296e-07
4.20521e-07
3.79694e-07
3.43239e-07
3.10652e-07
2.81489e-07
2.55361e-07
2.31924e-07
2.10876e-07
1.91952e-07
1.74917e-07
1.59564e-07
1.4571e-07
1.23039e-06
1.0977e-06
9.80402e-07
8.76619e-07
7.84717e-07
7.03261e-07
6.30998e-07
5.66829e-07
5.09791e-07
4.5904e-07
4.13836e-07
3.7353e-07
3.37552e-07
3.05402e-07
2.76639e-07
2.50878e-07
2.27778e-07
2.07041e-07
1.88402e-07
1.71628e-07
1.56517e-07
1.42885e-07
1.21672e-06
1.08524e-06
9.6903e-07
8.66231e-07
7.75217e-07
6.94566e-07
6.23031e-07
5.59523e-07
5.03085e-07
4.52879e-07
4.08172e-07
3.68318e-07
3.32753e-07
3.00979e-07
2.72561e-07
2.47115e-07
2.24304e-07
2.0383e-07
1.85434e-07
1.68883e-07
1.53977e-07
1.40533e-07
1.2051e-06
1.07467e-06
9.59413e-07
8.57469e-07
7.67225e-07
6.87269e-07
6.16362e-07
5.53421e-07
4.97497e-07
4.47757e-07
4.03472e-07
3.64003e-07
3.28787e-07
2.97332e-07
2.69203e-07
2.44022e-07
2.21452e-07
2.01201e-07
1.83006e-07
1.66642e-07
1.51904e-07
1.38617e-07
1.19546e-06
1.06594e-06
9.51484e-07
8.50263e-07
7.60669e-07
6.81297e-07
6.10917e-07
5.48451e-07
4.92955e-07
4.43603e-07
3.9967e-07
3.60518e-07
3.25591e-07
2.94397e-07
2.66508e-07
2.41543e-07
2.19172e-07
1.99099e-07
1.8107e-07
1.64855e-07
1.50256e-07
1.37095e-07
1.18772e-06
1.05894e-06
9.45146e-07
8.44517e-07
7.55454e-07
6.76558e-07
6.06606e-07
5.44526e-07
4.89377e-07
4.40338e-07
3.96686e-07
3.5779e-07
3.23093e-07
2.92109e-07
2.64409e-07
2.39617e-07
2.17402e-07
1.97473e-07
1.79573e-07
1.63477e-07
1.48986e-07
1.35924e-07
1.18188e-06
1.05366e-06
9.40374e-07
8.40196e-07
7.51537e-07
6.73003e-07
6.03376e-07
5.41587e-07
4.86701e-07
4.37898e-07
3.9446e-07
3.55756e-07
3.21233e-07
2.90406e-07
2.62849e-07
2.38186e-07
2.16089e-07
1.96266e-07
1.78464e-07
1.62457e-07
1.48046e-07
1.35058e-07
1.17729e-06
1.04954e-06
9.36666e-07
8.36858e-07
7.48529e-07
6.7029e-07
6.00926e-07
5.39371e-07
4.84695e-07
4.3608e-07
3.9281e-07
3.54257e-07
3.19871e-07
2.89166e-07
2.61718e-07
2.37154e-07
2.15146e-07
1.95404e-07
1.77675e-07
1.61734e-07
1.47384e-07
1.3445e-07
1.17454e-06
1.04707e-06
9.34437e-07
8.34847e-07
7.46711e-07
6.68645e-07
5.99435e-07
5.38019e-07
4.83467e-07
4.34964e-07
3.91794e-07
3.53332e-07
3.19026e-07
2.88395e-07
2.61014e-07
2.3651e-07
2.14556e-07
1.94864e-07
1.77179e-07
1.61278e-07
1.46965e-07
1.34065e-07
1.17425e-06
1.04679e-06
9.3418e-07
8.34606e-07
7.46486e-07
6.68434e-07
5.99238e-07
5.37835e-07
4.83295e-07
4.34802e-07
3.91643e-07
3.5319e-07
3.18894e-07
2.88271e-07
2.60898e-07
2.36402e-07
2.14455e-07
1.94769e-07
1.77091e-07
1.61196e-07
1.46888e-07
1.33993e-07
1.17107e-06
1.17123e-06
1.1738e-06
1.17806e-06
1.1833e-06
1.19012e-06
1.19847e-06
1.20839e-06
1.21978e-06
1.23255e-06
1.24648e-06
1.26206e-06
1.2785e-06
1.29582e-06
1.3138e-06
1.24217e-06
1.21908e-06
1.19711e-06
1.17642e-06
1.15712e-06
1.13901e-06
1.12294e-06
1.10828e-06
1.09524e-06
1.08383e-06
1.07401e-06
1.06575e-06
1.05897e-06
1.05367e-06
1.04921e-06
1.03804e-06
1.03818e-06
1.04045e-06
1.04423e-06
1.04891e-06
1.05502e-06
1.06254e-06
1.07151e-06
1.08187e-06
1.09354e-06
1.10634e-06
1.12071e-06
1.13601e-06
1.15223e-06
1.16919e-06
1.10808e-06
1.08696e-06
1.06692e-06
1.04809e-06
1.03057e-06
1.01418e-06
9.99641e-07
9.86414e-07
9.74674e-07
9.64414e-07
9.55607e-07
9.48202e-07
9.42137e-07
9.374e-07
9.33413e-07
9.20998e-07
9.21118e-07
9.2314e-07
9.26493e-07
9.30681e-07
9.36155e-07
9.42926e-07
9.51056e-07
9.60497e-07
9.71167e-07
9.82938e-07
9.96206e-07
1.01043e-06
1.02562e-06
1.04161e-06
9.89586e-07
9.70253e-07
9.51952e-07
9.34793e-07
9.18868e-07
9.04021e-07
8.90851e-07
8.78902e-07
8.68318e-07
8.59085e-07
8.51173e-07
8.44531e-07
8.39096e-07
8.34852e-07
8.31289e-07
8.17959e-07
8.18066e-07
8.19864e-07
8.22844e-07
8.26597e-07
8.31512e-07
8.37613e-07
8.44981e-07
8.53593e-07
8.63373e-07
8.74208e-07
8.86455e-07
8.99688e-07
9.13909e-07
9.28968e-07
8.84791e-07
8.67074e-07
8.50344e-07
8.34693e-07
8.20199e-07
8.06728e-07
7.94784e-07
7.83977e-07
7.74423e-07
7.66103e-07
7.58986e-07
7.53021e-07
7.48146e-07
7.44339e-07
7.41151e-07
7.27184e-07
7.2728e-07
7.28881e-07
7.31535e-07
7.34903e-07
7.39324e-07
7.44827e-07
7.51505e-07
7.59368e-07
7.68346e-07
7.78332e-07
7.89641e-07
8.01948e-07
8.1526e-07
8.29437e-07
7.92027e-07
7.75773e-07
7.60464e-07
7.46173e-07
7.32965e-07
7.20727e-07
7.09882e-07
7.00096e-07
6.9146e-07
6.83954e-07
6.77544e-07
6.72179e-07
6.67801e-07
6.64383e-07
6.61527e-07
6.47157e-07
6.47243e-07
6.48671e-07
6.51037e-07
6.54065e-07
6.5805e-07
6.6302e-07
6.69076e-07
6.76256e-07
6.84508e-07
6.93725e-07
7.04175e-07
7.15616e-07
7.28075e-07
7.41414e-07
7.09835e-07
6.94908e-07
6.80885e-07
6.67822e-07
6.55772e-07
6.4464e-07
6.34781e-07
6.25908e-07
6.18093e-07
6.11311e-07
6.05531e-07
6.00701e-07
5.96764e-07
5.9369e-07
5.9113e-07
5.76551e-07
5.7663e-07
5.77905e-07
5.80017e-07
5.82743e-07
5.86341e-07
5.90839e-07
5.96333e-07
6.0289e-07
6.10481e-07
6.19001e-07
6.28666e-07
6.39298e-07
6.50951e-07
6.63499e-07
6.36942e-07
6.23219e-07
6.1036e-07
5.98407e-07
5.87401e-07
5.77264e-07
5.6829e-07
5.60234e-07
5.53153e-07
5.4702e-07
5.41799e-07
5.37445e-07
5.33901e-07
5.31134e-07
5.28836e-07
5.14209e-07
5.14283e-07
5.15423e-07
5.1731e-07
5.19768e-07
5.23021e-07
5.271e-07
5.32092e-07
5.38078e-07
5.45062e-07
5.52947e-07
5.61898e-07
5.71777e-07
5.82669e-07
5.94466e-07
5.72231e-07
5.59602e-07
5.47797e-07
5.36849e-07
5.26787e-07
5.17544e-07
5.09367e-07
5.02044e-07
4.9562e-07
4.90065e-07
4.85346e-07
4.81415e-07
4.7822e-07
4.75726e-07
4.73661e-07
4.59119e-07
4.59189e-07
4.6021e-07
4.61898e-07
4.64116e-07
4.67063e-07
4.70769e-07
4.75312e-07
4.80778e-07
4.87201e-07
4.94504e-07
5.02804e-07
5.11988e-07
5.22158e-07
5.33244e-07
5.14725e-07
5.03093e-07
4.92242e-07
4.82204e-07
4.72996e-07
4.6456e-07
4.57099e-07
4.50435e-07
4.44599e-07
4.39562e-07
4.3529e-07
4.31737e-07
4.28853e-07
4.26603e-07
4.24745e-07
4.10395e-07
4.10463e-07
4.1138e-07
4.12891e-07
4.14895e-07
4.17567e-07
4.20941e-07
4.25084e-07
4.30077e-07
4.35982e-07
4.42747e-07
4.50454e-07
4.58998e-07
4.68487e-07
4.78894e-07
4.63565e-07
4.52846e-07
4.42861e-07
4.33647e-07
4.25212e-07
4.17504e-07
4.10689e-07
4.04617e-07
3.99309e-07
3.94737e-07
3.90863e-07
3.87648e-07
3.85043e-07
3.8301e-07
3.81337e-07
3.67266e-07
3.6733e-07
3.68155e-07
3.69511e-07
3.71323e-07
3.73748e-07
3.76825e-07
3.8061e-07
3.85178e-07
3.90603e-07
3.96868e-07
4.0403e-07
4.11987e-07
4.20839e-07
4.30595e-07
4.18e-07
4.08117e-07
3.98922e-07
3.90453e-07
3.82719e-07
3.75669e-07
3.69439e-07
3.63899e-07
3.59065e-07
3.54909e-07
3.51394e-07
3.48481e-07
3.46123e-07
3.44285e-07
3.42776e-07
3.29053e-07
3.29114e-07
3.29859e-07
3.31076e-07
3.32717e-07
3.34921e-07
3.37728e-07
3.41194e-07
3.4538e-07
3.50364e-07
3.5616e-07
3.62819e-07
3.70238e-07
3.78498e-07
3.87634e-07
3.77369e-07
3.68255e-07
3.59783e-07
3.51991e-07
3.44891e-07
3.38438e-07
3.32735e-07
3.27675e-07
3.23269e-07
3.19485e-07
3.16292e-07
3.13649e-07
3.11513e-07
3.09848e-07
3.08486e-07
2.95166e-07
2.95223e-07
2.95895e-07
2.96992e-07
2.98478e-07
3.00483e-07
3.03048e-07
3.06224e-07
3.10068e-07
3.1465e-07
3.20008e-07
3.26197e-07
3.33121e-07
3.40834e-07
3.49381e-07
3.411e-07
3.32688e-07
3.24879e-07
3.17705e-07
3.11181e-07
3.05266e-07
3.00041e-07
2.95415e-07
2.91393e-07
2.87945e-07
2.8504e-07
2.8264e-07
2.80702e-07
2.79193e-07
2.77962e-07
2.65086e-07
2.65138e-07
2.65746e-07
2.66735e-07
2.68084e-07
2.69909e-07
2.72254e-07
2.75169e-07
2.78705e-07
2.82923e-07
2.87872e-07
2.93619e-07
3.00084e-07
3.07293e-07
3.15288e-07
3.08687e-07
3.00916e-07
2.93716e-07
2.87108e-07
2.81106e-07
2.75679e-07
2.70886e-07
2.66654e-07
2.62978e-07
2.59833e-07
2.57187e-07
2.55003e-07
2.53244e-07
2.51874e-07
2.50761e-07
2.38358e-07
2.38406e-07
2.38955e-07
2.39848e-07
2.41076e-07
2.42738e-07
2.44884e-07
2.47561e-07
2.50818e-07
2.54708e-07
2.59279e-07
2.6461e-07
2.70644e-07
2.77388e-07
2.84869e-07
2.79689e-07
2.72502e-07
2.6586e-07
2.59772e-07
2.54246e-07
2.49259e-07
2.4486e-07
2.40982e-07
2.3762e-07
2.34747e-07
2.32334e-07
2.30347e-07
2.28746e-07
2.27501e-07
2.26494e-07
2.14584e-07
2.14628e-07
2.15125e-07
2.15932e-07
2.17051e-07
2.18568e-07
2.20531e-07
2.22992e-07
2.25994e-07
2.29587e-07
2.33815e-07
2.38754e-07
2.44381e-07
2.50693e-07
2.57697e-07
2.53718e-07
2.47063e-07