/*--------------------------------*- C++ -*----------------------------------*\
| =========                 |                                                 |
| \\      /  F ield         | OpenFOAM Extend Project: Open source CFD        |
|  \\    /   O peration     | Version:  1.6-ext                               |
|   \\  /    A nd           | Web:      www.extend-project.de                 |
|    \\/     M anipulation  |                                                 |
\*---------------------------------------------------------------------------*/
FoamFile
{
    version     2.0;
    format      ascii;
    class       volScalarField;
    location    "3.1";
    object      p;
}
// * * * * * * * * * * * * * * * * * * * * * * * * * * * * * * * * * * * * * //

dimensions      [0 2 -2 0 0 0 0];

internalField   nonuniform List<scalar> 
284
(
0.270163
0.238693
0.227239
0.222287
0.220428
0.220452
0.221373
0.222652
0.224732
0.240943
0.232067
0.226719
0.224212
0.223297
0.223405
0.224023
0.224871
0.22711
0.228992
0.225592
0.223032
0.221891
0.221931
0.222743
0.22379
0.224808
0.227827
0.219525
0.218462
0.217428
0.217241
0.217989
0.219369
0.220841
0.222069
0.225801
0.211722
0.211418
0.211026
0.211108
0.211864
0.213114
0.214319
0.215042
0.218826
0.204631
0.204515
0.204195
0.203955
0.203961
0.204084
0.203756
0.202311
0.20396
0.197894
0.197748
0.197156
0.196168
0.194768
0.192659
0.188931
0.181812
0.176077
0.191539
0.19127
0.190194
0.188156
0.184865
0.179672
0.170925
0.156243
0.111135
0.185814
0.185377
0.183685
0.180406
0.174793
0.165171
0.145676
0.107125
0.012572
0.181089
0.180431
0.178063
0.17366
0.166436
0.154836
0.134543
0.102321
0.0482808
0.177831
0.176757
0.173563
0.168186
0.160212
0.148702
0.131701
0.107264
0.0739774
0.176546
0.174594
0.170149
0.163715
0.155251
0.144199
0.129731
0.110049
0.0864981
0.178862
0.174337
0.16778
0.16007
0.151117
0.140517
0.127815
0.111517
0.0930792
0.184996
0.175188
0.165983
0.157146
0.148108
0.138106
0.126645
0.112579
0.0966511
0.213231
0.181329
0.16657
0.156698
0.147901
0.13872
0.128228
0.115249
0.100083
-0.121779
-0.0869657
-0.0218565
-0.043422
0.0240325
-0.00607446
0.0532854
0.0271629
0.0701913
0.048575
0.0782007
0.0592914
0.082466
0.0635751
-0.0751924
-0.0665867
-0.0626342
-0.0582646
-0.0508193
-0.0397499
-0.0269756
-0.0139896
-0.00433944
-0.0495205
-0.0503502
-0.0495947
-0.0465965
-0.0403029
-0.030931
-0.020677
-0.0105468
-0.0041426
-0.0201826
-0.0262867
-0.0287233
-0.0282273
-0.0247884
-0.0189765
-0.0127115
-0.00649995
-0.00370441
0.0105192
-9.96101e-06
-0.00659864
-0.00971974
-0.00997262
-0.00819991
-0.00591441
-0.00331268
-0.00331978
0.031263
0.0183391
0.00924155
0.00341183
0.00017102
-0.00121936
-0.00177273
-0.00158645
-0.00303304
0.0423547
0.0283954
0.0176371
0.00988904
0.00466872
0.00140306
-0.000546673
-0.00138715
-0.00289757
0.0454982
0.0298925
0.0174084
0.00815954
0.00189625
-0.00184063
-0.00361959
-0.00388929
-0.00396588
-0.0329441
-0.0337649
-0.0321592
-0.0287172
-0.0236112
-0.017264
-0.0103037
-0.00530771
0.00459313
-0.0321857
-0.0331946
-0.031962
-0.0291537
-0.0247359
-0.018881
-0.0120408
-0.00716197
0.00410004
-0.0339465
-0.0351876
-0.0342207
-0.0316417
-0.0272241
-0.0211019
-0.0136515
-0.00787593
0.00376853
-0.0378824
-0.0391548
-0.0384445
-0.0360336
-0.0314461
-0.0246669
-0.0162177
-0.00898161
0.0029406
-0.0441019
-0.0449296
-0.0444534
-0.0422239
-0.0374188
-0.029754
-0.020023
-0.0105788
0.00151845
-0.0525326
-0.0518895
-0.0516565
-0.0494793
-0.044492
-0.0357202
-0.0244784
-0.0127663
-0.000409551
-0.0625773
-0.0584316
-0.0584051
-0.0565881
-0.0507563
-0.0408657
-0.0281921
-0.0147455
-0.00239656
-0.0822605
-0.0652667
-0.0633403
-0.0602758
-0.0536341
-0.04282
-0.0294463
-0.0154083
-0.00380662
)
;

boundaryField
{
    inlet
    {
        type            zeroGradient;
    }
    outlet
    {
        type            totalPressure;
        rho             none;
        psi             none;
        gamma           1;
        p0              uniform 0;
        value           uniform 0;
    }
    fixedWalls
    {
        type            zeroGradient;
    }
    frontAndBack
    {
        type            empty;
    }
}


// ************************************************************************* //
