/*--------------------------------*- C++ -*----------------------------------*\
| =========                 |                                                 |
| \\      /  F ield         | OpenFOAM Extend Project: Open source CFD        |
|  \\    /   O peration     | Version:  1.6-ext                               |
|   \\  /    A nd           | Web:      www.extend-project.de                 |
|    \\/     M anipulation  |                                                 |
\*---------------------------------------------------------------------------*/
FoamFile
{
    version     2.0;
    format      ascii;
    class       surfaceScalarField;
    location    "3.1";
    object      phi;
}
// * * * * * * * * * * * * * * * * * * * * * * * * * * * * * * * * * * * * * //

dimensions      [0 3 -1 0 0 0 0];

internalField   nonuniform List<scalar> 
525
(
0.000160828
3.91721e-05
0.000117083
4.37446e-05
8.15166e-05
3.55667e-05
5.44928e-05
2.70238e-05
3.45578e-05
1.9935e-05
1.96342e-05
1.49236e-05
8.32764e-06
1.13066e-05
1.0334e-06
7.29424e-06
1.0334e-06
0.000204969
3.42033e-05
0.000190397
5.83167e-05
0.000162511
6.34523e-05
0.000129188
6.03469e-05
9.50635e-05
5.40595e-05
6.27407e-05
4.72465e-05
3.37303e-05
4.0317e-05
1.0649e-05
3.03756e-05
1.16824e-05
0.000208677
2.55264e-05
0.000208219
5.87742e-05
0.000194486
7.71853e-05
0.000169068
8.57647e-05
0.000135316
8.78117e-05
9.67888e-05
8.5774e-05
5.68135e-05
8.02923e-05
2.05071e-05
6.6682e-05
3.21895e-05
0.000205069
2.04576e-05
0.000208296
5.55471e-05
0.00020294
8.25411e-05
0.000186432
0.000102273
0.000158553
0.000115691
0.000120673
0.000123653
7.5551e-05
0.000125415
2.94606e-05
0.000112772
6.165e-05
0.00020239
1.80673e-05
0.000205365
5.25722e-05
0.000203972
8.39342e-05
0.000194216
0.00011203
0.000173237
0.000136669
0.000139537
0.000157354
9.3321e-05
0.00017163
3.95629e-05
0.000166531
0.000101213
0.000201266
1.68014e-05
0.000203906
4.99321e-05
0.000204953
8.28874e-05
0.000200657
0.000116325
0.000186964
0.000150362
0.00015993
0.000184388
0.000116132
0.000215429
5.56703e-05
0.000226992
0.000156883
0.000201192
1.56095e-05
0.000204544
4.65796e-05
0.000208354
7.90778e-05
0.000209748
0.000114931
0.000204758
0.000155353
0.000188417
0.000200728
0.000152798
0.000251048
8.7714e-05
0.000292076
0.000244597
0.000201732
1.38778e-05
0.00020687
4.14411e-05
0.000214422
7.1526e-05
0.000222541
0.000106812
0.000228147
0.000149747
0.00022628
0.000202596
0.000204598
0.00027273
0.000138917
0.000357757
0.000383514
0.000202641
1.12364e-05
0.000210342
3.37399e-05
0.000222411
5.94573e-05
0.000238221
9.10021e-05
0.000257663
0.000130305
0.000282495
0.000177764
0.000319798
0.000235427
0.000384889
0.000292666
0.000361707
0.000406695
0.000203922
7.31477e-06
0.000214659
2.30027e-05
0.000231095
4.30207e-05
0.000253068
6.90294e-05
0.000281905
0.000101468
0.000320855
0.000138813
0.000373613
0.00018267
0.000454997
0.000211282
0.000281215
0.000535489
0.000205988
1.32672e-06
0.000220194
8.79629e-06
0.000240054
2.31614e-05
0.000265139
4.39441e-05
0.000296685
6.99225e-05
0.000337233
9.82648e-05
0.000388779
0.000131123
0.00045511
0.000144951
0.000187409
0.000548917
0.00020941
-8.08315e-06
0.000227215
-9.00928e-06
0.000248487
1.88954e-06
0.000273246
1.91858e-05
0.000302945
4.02236e-05
0.000339747
6.14627e-05
0.00038632
8.45499e-05
0.000438766
9.25058e-05
0.000111624
0.00051455
0.000214469
-2.25521e-05
0.000232061
-2.66016e-05
0.000249354
-1.54036e-05
0.00026862
-7.94132e-08
0.000292271
1.65721e-05
0.000322416
3.13177e-05
0.000361541
4.54251e-05
0.000403731
5.03158e-05
5.68853e-05
0.00045847
0.000211613
-3.41652e-05
0.000216441
-3.14294e-05
0.000219637
-1.86002e-05
0.000226295
-6.73672e-06
0.000239922
2.94509e-06
0.000261249
9.99012e-06
0.00029098
1.56939e-05
0.000323875
1.74214e-05
1.86259e-05
0.000362134
0.000165835
0.000134405
0.000115805
0.000109069
0.000112014
0.000122004
0.000137698
0.000155119
0.000173745
0.000251576
0.000155119
5.40084e-05
0.000197568
0.000513425
0.000177182
8.53546e-05
0.000482079
0.000584716
0.000141384
7.85878e-05
0.000591483
0.000564054
9.18791e-05
5.35327e-05
0.000589109
0.000503288
4.70614e-05
2.51951e-05
0.000531626
0.000394928
1.42675e-05
5.29585e-06
0.000414827
0.000188012
0.000193308
0.000208815
-3.5216e-07
-1.08946e-05
0.000246211
-3.20979e-05
-5.29864e-06
0.000286515
-6.52949e-05
2.49915e-05
0.000320872
-0.000102702
6.83445e-05
0.000345805
-0.000139847
0.000114915
0.000360607
-0.000170359
0.000155557
0.000366048
-0.000187132
0.00018169
0.000364394
-0.000191168
0.000192821
-0.00017013
0.000177445
0.000462628
1.90988e-05
0.000460217
-2.96866e-05
0.000466342
-7.14202e-05
0.000472593
-0.000108953
0.000473623
-0.000140877
0.000466874
-0.00016361
0.000452603
-0.000172861
0.000432171
-0.000170735
-0.000147613
0.000587001
2.35809e-05
0.000580933
-2.36189e-05
0.000573603
-6.40901e-05
0.000562284
-9.7634e-05
0.000544717
-0.00012331
0.000519849
-0.000138741
0.00048905
-0.000142062
0.000453801
-0.000135487
-0.000114461
0.000599474
1.32161e-05
0.000598921
-2.30658e-05
0.000588814
-5.39833e-05
0.000569535
-7.83553e-05
0.000541183
-9.4958e-05
0.000504864
-0.000102422
0.000463668
-0.000100867
0.000420357
-9.21755e-05
-7.67557e-05
0.000544424
4.17372e-07
0.000542896
-2.15373e-05
0.000528439
-3.95262e-05
0.000502222
-5.21388e-05
0.00046615
-5.88854e-05
0.000423371
-5.9643e-05
0.000378221
-5.57176e-05
0.000334648
-4.86024e-05
-4.10682e-05
0.000419857
-4.61262e-06
0.000410889
-1.25694e-05
0.000389419
-1.80557e-05
0.000358125
-2.08448e-05
0.000320447
-2.12071e-05
0.000280486
-1.96821e-05
0.000242063
-1.72943e-05
0.000208209
-1.4749e-05
-1.38924e-05
0.000188696
0.000176126
0.000158071
0.000137226
0.000116019
9.63365e-05
7.90422e-05
6.42932e-05
-4.72176e-06
4.72176e-06
-1.39209e-05
9.1991e-06
-2.25174e-05
8.5965e-06
-2.77057e-05
5.18833e-06
-2.83044e-05
5.98672e-07
-2.4184e-05
-4.12036e-06
-1.59009e-05
-8.2831e-06
-4.66658e-06
-1.12343e-05
-1.32405e-05
-9.93148e-06
1.46532e-05
-2.55458e-05
2.48134e-05
-3.84709e-05
2.15216e-05
-4.42807e-05
1.09981e-05
-4.14747e-05
-2.20724e-06
-3.0493e-05
-1.51021e-05
-1.32798e-05
-2.54963e-05
7.79522e-06
-3.23093e-05
-3.44496e-05
-1.19348e-05
2.6588e-05
-2.94336e-05
4.23123e-05
-4.27339e-05
3.48219e-05
-4.69969e-05
1.52611e-05
-4.0657e-05
-8.54713e-06
-2.47315e-05
-3.10276e-05
-2.10413e-06
-4.81236e-05
2.50284e-05
-5.94419e-05
-6.10055e-05
-1.25059e-05
3.9094e-05
-2.94821e-05
5.92885e-05
-4.11714e-05
4.65112e-05
-4.28328e-05
1.69224e-05
-3.32199e-05
-1.816e-05
-1.33921e-05
-5.08554e-05
1.37225e-05
-7.52382e-05
4.4381e-05
-9.01003e-05
-9.0818e-05
-1.15932e-05
5.06872e-05
-2.43606e-05
7.20559e-05
-3.09159e-05
5.30664e-05
-2.73342e-05
1.33407e-05
-1.32674e-05
-3.22268e-05
9.93725e-06
-7.406e-05
3.96716e-05
-0.000104973
7.20441e-05
-0.000122473
-0.000121374
-7.60915e-06
5.82963e-05
-9.37901e-06
7.38258e-05
-4.16938e-06
4.78568e-05
9.35648e-06
-1.85138e-07
2.99694e-05
-5.28397e-05
5.64169e-05
-0.000100508
8.64467e-05
-0.000135002
0.000117417
-0.000153443
-0.000149129
5.0363e-06
5.326e-05
2.37523e-05
5.51097e-05
4.93111e-05
2.2298e-05
7.68025e-05
-2.76765e-05
0.000105421
-8.14581e-05
0.000133972
-0.000129059
0.00016103
-0.00016206
0.000186112
-0.000178526
-0.000169428
4.23654e-05
9.21765e-05
0.000139466
0.000180134
0.00021359
0.000240088
0.000259719
0.000274015
)
;

boundaryField
{
    inlet
    {
        type            calculated;
        value           uniform -0.0002;
    }
    outlet
    {
        type            calculated;
        value           nonuniform List<scalar> 
15
(
8.57394e-06
2.90043e-05
5.15844e-05
7.41935e-05
0.0001026
0.000145172
0.000206412
0.000282031
0.000357079
0.000409654
0.000420649
0.000382652
0.000298961
0.000181033
5.04008e-05
)
;
    }
    fixedWalls
    {
        type            calculated;
        value           uniform 0;
    }
    frontAndBack
    {
        type            empty;
    }
}


// ************************************************************************* //
