/*--------------------------------*- C++ -*----------------------------------*\
| =========                 |                                                 |
| \\      /  F ield         | OpenFOAM Extend Project: Open source CFD        |
|  \\    /   O peration     | Version:  1.6-ext                               |
|   \\  /    A nd           | Web:      www.extend-project.de                 |
|    \\/     M anipulation  |                                                 |
\*---------------------------------------------------------------------------*/
FoamFile
{
    version     2.0;
    format      ascii;
    class       volVectorField;
    location    "3.1";
    object      U;
}
// * * * * * * * * * * * * * * * * * * * * * * * * * * * * * * * * * * * * * //

dimensions      [0 1 -1 0 0 0 0];

internalField   nonuniform List<vector> 
284
(
(0.163775 0.0266056 0)
(0.141802 0.0268267 0)
(0.0988013 0.019238 0)
(0.0664426 0.0121727 0)
(0.0434525 0.0072075 0)
(0.0263666 0.00427764 0)
(0.0132869 0.00255788 0)
(0.00309635 0.000948372 0)
(-0.000670674 -0.00120117 0)
(0.200595 0.0433875 0)
(0.20209 0.0576761 0)
(0.179476 0.053408 0)
(0.146843 0.0442177 0)
(0.11217 0.0349125 0)
(0.0785205 0.0274729 0)
(0.0472748 0.0215887 0)
(0.0193015 0.0147695 0)
(0.00316942 0.003698 0)
(0.203091 0.0291249 0)
(0.211032 0.0597217 0)
(0.204733 0.0724102 0)
(0.184524 0.0749977 0)
(0.15409 0.0719127 0)
(0.117153 0.0662285 0)
(0.0767335 0.0588564 0)
(0.0353678 0.0463557 0)
(0.00750199 0.0202226 0)
(0.201519 0.0224407 0)
(0.207628 0.0571163 0)
(0.208041 0.0809154 0)
(0.197731 0.0956834 0)
(0.175499 0.103275 0)
(0.142223 0.105512 0)
(0.0995133 0.102571 0)
(0.0495367 0.088347 0)
(0.0118238 0.0454001 0)
(0.200559 0.0190217 0)
(0.204016 0.0539106 0)
(0.206064 0.0837573 0)
(0.201641 0.108348 0)
(0.187017 0.127642 0)
(0.160076 0.141654 0)
(0.119492 0.14877 0)
(0.0645406 0.138549 0)
(0.017478 0.0797389 0)
(0.200229 0.0173572 0)
(0.202396 0.0512384 0)
(0.205076 0.0838506 0)
(0.204637 0.115269 0)
(0.196849 0.145139 0)
(0.177734 0.172602 0)
(0.142864 0.194743 0)
(0.0862531 0.196484 0)
(0.0276732 0.12584 0)
(0.200213 0.0162217 0)
(0.202469 0.0484499 0)
(0.206564 0.0816014 0)
(0.210176 0.116914 0)
(0.20969 0.154927 0)
(0.200844 0.195244 0)
(0.177767 0.234916 0)
(0.12411 0.254885 0)
(0.0484933 0.198281 0)
(0.200342 0.0148235 0)
(0.203642 0.0443943 0)
(0.210295 0.0761385 0)
(0.218913 0.112402 0)
(0.226931 0.15516 0)
(0.2311 0.206141 0)
(0.22381 0.270877 0)
(0.197627 0.340849 0)
(0.0602228 0.288151 0)
(0.200546 0.0126935 0)
(0.205506 0.0381183 0)
(0.215584 0.0664481 0)
(0.230107 0.100439 0)
(0.248112 0.142521 0)
(0.272162 0.194497 0)
(0.29989 0.262117 0)
(0.358426 0.346253 0)
(0.399801 0.430074 0)
(0.200841 0.00950318 0)
(0.207972 0.0290366 0)
(0.221741 0.0522059 0)
(0.24136 0.0812593 0)
(0.266456 0.117613 0)
(0.301331 0.160994 0)
(0.343603 0.213559 0)
(0.41163 0.256469 0)
(0.492939 0.337692 0)
(0.20139 0.00486399 0)
(0.211553 0.0167337 0)
(0.228916 0.033883 0)
(0.251699 0.0571096 0)
(0.279654 0.0862241 0)
(0.31579 0.118922 0)
(0.360768 0.157142 0)
(0.418362 0.17386 0)
(0.498885 0.22783 0)
(0.202458 -0.00250099 0)
(0.216893 0.000584182 0)
(0.23694 0.0124914 0)
(0.260094 0.0309865 0)
(0.287061 0.0540983 0)
(0.319794 0.0784604 0)
(0.361656 0.106011 0)
(0.409458 0.115177 0)
(0.473547 0.141708 0)
(0.204217 -0.0138057 0)
(0.22265 -0.018156 0)
(0.240479 -0.0085393 0)
(0.25832 0.00748124 0)
(0.279422 0.0260399 0)
(0.305679 0.0440037 0)
(0.340814 0.0623957 0)
(0.380648 0.0689499 0)
(0.42928 0.0791759 0)
(0.201755 -0.0352127 0)
(0.215023 -0.0369324 0)
(0.218134 -0.0231788 0)
(0.221805 -0.00772346 0)
(0.231641 0.00620934 0)
(0.248818 0.0174806 0)
(0.274975 0.0270361 0)
(0.306138 0.0302182 0)
(0.34236 0.0326599 0)
(0.164661 -0.02489 0)
(0.151224 -0.0223369 0)
(0.123903 -0.012726 0)
(0.110326 -0.00506122 0)
(0.109011 0.000237997 0)
(0.115842 0.00364526 0)
(0.129187 0.00588023 0)
(0.14593 0.00620285 0)
(0.164544 0.0059665 0)
(0.356971 0.166186 0)
(0.189461 0.0420724 0)
(0.545793 0.175269 0)
(0.501685 0.0763558 0)
(0.576437 0.164119 0)
(0.596994 0.0928027 0)
(0.542677 0.115317 0)
(0.582748 0.0685143 0)
(0.482146 0.0659036 0)
(0.521123 0.0375656 0)
(0.37964 0.025559 0)
(0.407622 0.0109608 0)
(0.181881 0.00328381 0)
(0.192349 -0.00101449 0)
(0.195511 -0.00959008 0)
(0.222777 -0.0256276 0)
(0.265201 -0.0541213 0)
(0.30543 -0.0921933 0)
(0.336546 -0.132575 0)
(0.357633 -0.167399 0)
(0.36544 -0.188552 0)
(0.369958 -0.196267 0)
(0.35606 -0.177736 0)
(0.471033 0.00942072 0)
(0.458133 -0.0351756 0)
(0.461345 -0.0736217 0)
(0.470492 -0.110651 0)
(0.475676 -0.144524 0)
(0.474336 -0.170771 0)
(0.460697 -0.183591 0)
(0.447935 -0.184665 0)
(0.411242 -0.162112 0)
(0.593522 0.030018 0)
(0.584969 -0.0217537 0)
(0.577715 -0.0654759 0)
(0.569762 -0.102955 0)
(0.555943 -0.133055 0)
(0.535839 -0.152971 0)
(0.504513 -0.15968 0)
(0.476842 -0.155485 0)
(0.424055 -0.132891 0)
(0.599107 0.0203157 0)
(0.602167 -0.0224307 0)
(0.596376 -0.0589001 0)
(0.582151 -0.088751 0)
(0.55813 -0.110586 0)
(0.526008 -0.122348 0)
(0.483962 -0.123158 0)
(0.446242 -0.114986 0)
(0.387156 -0.0960077 0)
(0.542067 0.00592495 0)
(0.547411 -0.0233437 0)
(0.539148 -0.0480911 0)
(0.518627 -0.066863 0)
(0.486767 -0.0784685 0)
(0.446676 -0.082009 0)
(0.400175 -0.0783777 0)
(0.358605 -0.0693356 0)
(0.303737 -0.0574367 0)
(0.420742 -0.00524622 0)
(0.418814 -0.0194958 0)
(0.403237 -0.0300418 0)
(0.376221 -0.0362054 0)
(0.340715 -0.0380186 0)
(0.300884 -0.0360634 0)
(0.260339 -0.0319396 0)
(0.225515 -0.0269121 0)
(0.185214 -0.0238776 0)
(0.192819 -0.00493902 0)
(0.183973 -0.00749891 0)
(0.16819 -0.00853291 0)
(0.148215 -0.00827528 0)
(0.126684 -0.00721567 0)
(0.10588 -0.00587498 0)
(0.0872181 -0.00479765 0)
(0.071849 -0.00422068 0)
(0.0530646 -0.0048902 0)
(-0.00155189 0.00153875 0)
(-0.00864966 0.00361203 0)
(-0.0187942 0.00368009 0)
(-0.026037 0.00259677 0)
(-0.0289885 0.000968891 0)
(-0.0271329 -0.000863172 0)
(-0.0199837 -0.00266792 0)
(-0.0137475 -0.00408369 0)
(0.006619 -0.00530693 0)
(-0.00385726 0.00866501 0)
(-0.017073 0.0157926 0)
(-0.0334676 0.0143921 0)
(-0.043415 0.00830287 0)
(-0.0448428 0.000282103 0)
(-0.0376124 -0.00776877 0)
(-0.0218326 -0.014635 0)
(-0.00672823 -0.0194051 0)
(0.025448 -0.0217476 0)
(-0.00483308 0.0203941 0)
(-0.0202291 0.0333759 0)
(-0.0381152 0.0283025 0)
(-0.04749 0.0136589 0)
(-0.0462173 -0.00449432 0)
(-0.0346339 -0.0218549 0)
(-0.0132726 -0.0354198 0)
(0.00834996 -0.0444603 0)
(0.0469889 -0.0464537 0)
(-0.005284 0.0329273 0)
(-0.0209087 0.051149 0)
(-0.037756 0.0412616 0)
(-0.0449204 0.0168573 0)
(-0.0405606 -0.0125084 0)
(-0.025288 -0.0400695 0)
(-0.000449081 -0.0608037 0)
(0.0260545 -0.0739242 0)
(0.0690413 -0.0752475 0)
(-0.00535847 0.0452684 0)
(-0.0187293 0.0668796 0)
(-0.0303907 0.0512896 0)
(-0.0320408 0.0166335 0)
(-0.0226959 -0.0242872 0)
(-0.00329135 -0.0620815 0)
(0.0241115 -0.0900762 0)
(0.0536002 -0.106356 0)
(0.0972181 -0.106351 0)
(-0.00430384 0.0555774 0)
(-0.0104678 0.0758276 0)
(-0.00916296 0.0534989 0)
(0.000406553 0.00928499 0)
(0.0181894 -0.04149 0)
(0.0427602 -0.0874934 0)
(0.0716147 -0.121054 0)
(0.101273 -0.139316 0)
(0.139924 -0.136806 0)
(0.00124407 0.0646244 0)
(0.0101584 0.0725386 0)
(0.035104 0.0412656 0)
(0.0622366 -0.00994316 0)
(0.0914069 -0.0659502 0)
(0.121072 -0.115517 0)
(0.148882 -0.150561 0)
(0.17492 -0.168593 0)
(0.201895 -0.162089 0)
(0.0307848 0.0332628 0)
(0.0612987 0.0345766 0)
(0.115998 0.00165446 0)
(0.161114 -0.0470538 0)
(0.199161 -0.0990427 0)
(0.230175 -0.144456 0)
(0.252165 -0.174921 0)
(0.270077 -0.189298 0)
(0.278914 -0.177108 0)
)
;

boundaryField
{
    inlet
    {
        type            fixedValue;
        value           uniform (0.2 0 0);
    }
    outlet
    {
        type            zeroGradient;
    }
    fixedWalls
    {
        type            fixedValue;
        value           uniform (0 0 0);
    }
    frontAndBack
    {
        type            empty;
    }
}


// ************************************************************************* //
