/*--------------------------------*- C++ -*----------------------------------*\
| =========                 |                                                 |
| \\      /  F ield         | OpenFOAM Extend Project: Open source CFD        |
|  \\    /   O peration     | Version:  1.6-ext                               |
|   \\  /    A nd           | Web:      www.extend-project.de                 |
|    \\/     M anipulation  |                                                 |
\*---------------------------------------------------------------------------*/
FoamFile
{
    version     2.0;
    format      ascii;
    class       volScalarField;
    location    "3.6";
    object      p;
}
// * * * * * * * * * * * * * * * * * * * * * * * * * * * * * * * * * * * * * //

dimensions      [0 2 -2 0 0 0 0];

internalField   nonuniform List<scalar> 
284
(
0.277367
0.245893
0.234433
0.229467
0.227588
0.22759
0.228495
0.229765
0.231813
0.24815
0.239273
0.233925
0.231411
0.230473
0.230543
0.231125
0.231949
0.234149
0.236192
0.232791
0.230233
0.229087
0.229107
0.229886
0.230899
0.231896
0.234885
0.226717
0.225652
0.224618
0.224429
0.225166
0.226527
0.227986
0.229216
0.232946
0.218904
0.218598
0.218206
0.218289
0.219044
0.220298
0.221525
0.222294
0.226122
0.211803
0.211685
0.211365
0.211129
0.211145
0.211296
0.211034
0.209694
0.211443
0.205055
0.204907
0.204316
0.203332
0.20195
0.199893
0.196274
0.189324
0.183765
0.198687
0.198416
0.19734
0.195306
0.192037
0.186913
0.17831
0.163867
0.118989
0.192947
0.192508
0.190815
0.187538
0.181946
0.172401
0.153063
0.114793
0.0205586
0.188204
0.187546
0.185176
0.180769
0.173554
0.162011
0.141831
0.109788
0.0558872
0.184926
0.183854
0.180657
0.175267
0.16728
0.155776
0.138803
0.114415
0.0811598
0.183623
0.181672
0.177221
0.170763
0.162262
0.151156
0.136623
0.116861
0.0932179
0.185917
0.181394
0.174823
0.167074
0.158075
0.14737
0.134519
0.118037
0.0994063
0.192024
0.182219
0.173007
0.164154
0.155028
0.144882
0.133219
0.118915
0.102746
0.220258
0.188364
0.173597
0.163686
0.154785
0.14543
0.134714
0.121496
0.106114
-0.113453
-0.078243
-0.0140594
-0.0354531
0.0312057
0.00103161
0.0598454
0.033491
0.0762977
0.0544066
0.0840561
0.0648676
0.0883081
0.0692267
-0.0660145
-0.0573466
-0.0538749
-0.0513002
-0.0469327
-0.0393057
-0.0290128
-0.0166148
-0.00539931
-0.0415408
-0.0421852
-0.0421153
-0.040895
-0.0372593
-0.0306011
-0.0221609
-0.0123365
-0.00476961
-0.0132851
-0.0198088
-0.0230608
-0.0239829
-0.022414
-0.0183512
-0.0132111
-0.00716947
-0.00388599
0.0165274
0.00555798
-0.00185017
-0.00606788
-0.00754186
-0.00681678
-0.00525392
-0.00292071
-0.00318531
0.0367395
0.0233151
0.0135422
0.00693817
0.00292053
0.000874035
-0.000243744
-0.000516093
-0.00277844
0.04757
0.0331585
0.0218615
0.0135316
0.00772896
0.00391516
0.00138077
-0.000101199
-0.00267834
0.0508732
0.0349084
0.0219459
0.0120989
0.00514601
0.000672747
-0.00187175
-0.0029015
-0.00397481
-0.0305481
-0.0315836
-0.0305251
-0.0278108
-0.0234271
-0.0175426
-0.0107212
-0.00575053
0.00603542
-0.0295045
-0.0306736
-0.0298857
-0.0277609
-0.0241063
-0.0188274
-0.0122228
-0.00748127
0.0053278
-0.0308478
-0.0322382
-0.0317582
-0.0300169
-0.0266217
-0.0212957
-0.0141303
-0.00890744
0.00517153
-0.0342229
-0.0355842
-0.0354204
-0.0340767
-0.0308562
-0.0253559
-0.017597
-0.011076
0.00405963
-0.0396411
-0.0404513
-0.0405241
-0.0396154
-0.0365527
-0.0308135
-0.0222463
-0.0133752
0.00160278
-0.046901
-0.0460884
-0.0462868
-0.0457937
-0.0429906
-0.0367457
-0.0273545
-0.0159671
-0.00128258
-0.0554255
-0.0510734
-0.0512125
-0.0506258
-0.0478612
-0.0412748
-0.0310497
-0.0181475
-0.00376945
-0.0735553
-0.0564503
-0.0545727
-0.0532736
-0.0497519
-0.0425714
-0.0319204
-0.0185809
-0.00518817
)
;

boundaryField
{
    inlet
    {
        type            zeroGradient;
    }
    outlet
    {
        type            totalPressure;
        rho             none;
        psi             none;
        gamma           1;
        p0              uniform 0;
        value           nonuniform List<scalar> 
15
(
-1.98101e-05
0
0
0
0
0
0
0
0
0
0
0
0
0
0
)
;
    }
    fixedWalls
    {
        type            zeroGradient;
    }
    frontAndBack
    {
        type            empty;
    }
}


// ************************************************************************* //
