/*--------------------------------*- C++ -*----------------------------------*\
| =========                 |                                                 |
| \\      /  F ield         | OpenFOAM Extend Project: Open source CFD        |
|  \\    /   O peration     | Version:  1.6-ext                               |
|   \\  /    A nd           | Web:      www.extend-project.de                 |
|    \\/     M anipulation  |                                                 |
\*---------------------------------------------------------------------------*/
FoamFile
{
    version     2.0;
    format      ascii;
    class       surfaceScalarField;
    location    "3.6";
    object      phi;
}
// * * * * * * * * * * * * * * * * * * * * * * * * * * * * * * * * * * * * * //

dimensions      [0 3 -1 0 0 0 0];

internalField   nonuniform List<scalar> 
525
(
0.00016082
3.91798e-05
0.000117035
4.37847e-05
8.13997e-05
3.56358e-05
5.42869e-05
2.71128e-05
3.42647e-05
2.00222e-05
1.93043e-05
1.49604e-05
8.06862e-06
1.12357e-05
9.36873e-07
7.13175e-06
9.36874e-07
0.000204949
3.42312e-05
0.000190285
5.84487e-05
0.000162239
6.36813e-05
0.000128715
6.06366e-05
9.43999e-05
5.43376e-05
6.19939e-05
4.73665e-05
3.31174e-05
4.01121e-05
1.03704e-05
2.98788e-05
1.13073e-05
0.000208658
2.55727e-05
0.000208114
5.89936e-05
0.000194227
7.75681e-05
0.000168619
8.62438e-05
0.000134684
8.82734e-05
9.60606e-05
8.59896e-05
5.6189e-05
7.99837e-05
2.02028e-05
6.5865e-05
3.151e-05
0.000205056
2.05169e-05
0.000208213
5.58361e-05
0.000202753
8.30283e-05
0.000186152
0.000102845
0.000158207
0.000116219
0.00012029
0.000123907
7.52108e-05
0.000125062
2.92843e-05
0.000111791
6.07943e-05
0.000202378
1.81387e-05
0.000205292
5.29223e-05
0.000203834
8.44867e-05
0.000194086
0.000112593
0.000173195
0.00013711
0.000139571
0.00015753
9.3365e-05
0.000171269
3.95784e-05
0.000165578
0.000100373
0.000201252
1.68865e-05
0.000203828
5.03466e-05
0.000204813
8.35012e-05
0.000200571
0.000116835
0.000187078
0.000150603
0.000160253
0.000184355
0.000116485
0.000215036
5.58588e-05
0.000226204
0.000156232
0.000201177
1.57091e-05
0.000204459
4.70645e-05
0.000208182
7.97788e-05
0.000209594
0.000115423
0.00020482
0.000155378
0.000188786
0.000200388
0.000153281
0.000250542
8.79878e-05
0.000291498
0.000244219
0.000201719
1.39899e-05
0.000206789
4.19946e-05
0.000214223
7.23446e-05
0.000222274
0.000107372
0.000228002
0.00014965
0.000226456
0.000201934
0.000205033
0.000271964
0.00013924
0.000357292
0.000383459
0.000202634
1.13564e-05
0.000210285
3.43435e-05
0.000222234
6.03949e-05
0.000237895
9.17114e-05
0.000257295
0.000130249
0.000282304
0.000176926
0.000319891
0.000234377
0.000385142
0.000292041
0.000362191
0.000406411
0.00020392
7.43644e-06
0.000214645
2.36185e-05
0.000231015
4.40249e-05
0.000252839
6.98872e-05
0.000281518
0.00010157
0.000320456
0.000137988
0.000373385
0.000181448
0.000455177
0.000210249
0.000281692
0.000535675
0.000205991
1.44542e-06
0.000220236
9.37314e-06
0.000240135
2.41266e-05
0.000265177
4.48444e-05
0.000296584
7.01631e-05
0.000336999
9.75738e-05
0.000388533
0.000129914
0.000455076
0.000143705
0.000187478
0.000549291
0.000209425
-7.97951e-06
0.000227321
-8.52246e-06
0.000248761
2.68639e-06
0.000273634
1.99713e-05
0.000303315
4.04824e-05
0.000339953
6.09356e-05
0.000386359
8.35073e-05
0.000438717
9.13473e-05
0.000111359
0.000514836
0.000214494
-2.24735e-05
0.000232244
-2.62721e-05
0.000249805
-1.48751e-05
0.000269307
4.69762e-07
0.000293048
1.67408e-05
0.000323015
3.09691e-05
0.000361817
4.47049e-05
0.000403652
4.9512e-05
5.66115e-05
0.0004584
0.000211655
-3.41281e-05
0.000216667
-3.12847e-05
0.000220165
-1.83728e-05
0.000227151
-6.51611e-06
0.000240873
3.019e-06
0.000261983
9.85829e-06
0.000291279
1.54093e-05
0.000323681
1.71102e-05
1.85373e-05
0.000361755
0.000165872
0.000134587
0.000116214
0.000109698
0.000112717
0.000122576
0.000137985
0.000155095
0.000173632
0.000249941
0.00015647
5.63249e-05
0.000193616
0.000512848
0.000179297
8.93381e-05
0.000479835
0.000585291
0.000143297
8.2586e-05
0.000592043
0.000564959
9.31735e-05
5.6746e-05
0.000590799
0.000503727
4.78468e-05
2.73196e-05
0.000533153
0.000394998
1.46042e-05
6.24926e-06
0.000416068
0.000188237
0.000194486
0.000201586
2.84195e-06
-1.08122e-05
0.000236428
-2.46885e-05
-1.0153e-05
0.000276256
-5.15554e-05
1.17266e-05
0.000313008
-8.25436e-05
4.57921e-05
0.000342524
-0.000115993
8.64773e-05
0.000363232
-0.000147872
0.000127164
0.000374664
-0.000170951
0.000159518
0.00037807
-0.000185319
0.000181914
-0.000175573
0.000180272
0.000457718
2.49591e-05
0.000453462
-2.04327e-05
0.000459934
-5.80272e-05
0.000469317
-9.19271e-05
0.000475906
-0.000122581
0.000476093
-0.000148059
0.000468778
-0.000163636
0.00045406
-0.000170601
-0.000155617
0.000587249
2.97525e-05
0.000581195
-1.43787e-05
0.000575549
-5.23806e-05
0.000567903
-8.42811e-05
0.000555806
-0.000110484
0.000537209
-0.000129463
0.000512266
-0.000138693
0.000481058
-0.000139394
-0.000123431
0.000602055
1.84966e-05
0.000603427
-1.57509e-05
0.000596235
-4.51887e-05
0.000581203
-6.9249e-05
0.000558059
-8.73402e-05
0.000526838
-9.82413e-05
0.000489509
-0.000101364
0.000447588
-9.74729e-05
-8.45705e-05
0.000547653
3.99678e-06
0.00054885
-1.69478e-05
0.000538062
-3.44013e-05
0.000516254
-4.74404e-05
0.000484621
-5.57072e-05
0.000445203
-5.88231e-05
0.000401404
-5.75653e-05
0.000356597
-5.26666e-05
-4.60657e-05
0.000423294
-3.22907e-06
0.000417229
-1.08834e-05
0.000399244
-1.64158e-05
0.000371416
-1.96123e-05
0.000336375
-2.06665e-05
0.000297478
-1.99263e-05
0.000258197
-1.82836e-05
0.000221805
-1.62752e-05
-1.57514e-05
0.000191257
0.000180373
0.000163958
0.000144345
0.000123679
0.000103752
8.54687e-05
6.91936e-05
-4.13967e-06
4.13967e-06
-1.32603e-05
9.12062e-06
-2.28503e-05
9.58996e-06
-3.01119e-05
7.26162e-06
-3.34521e-05
3.34023e-06
-3.20187e-05
-1.4334e-06
-2.55544e-05
-6.46424e-06
-1.502e-05
-1.05344e-05
-1.49299e-05
-9.85719e-06
1.39969e-05
-2.65927e-05
2.58561e-05
-4.23723e-05
2.53695e-05
-5.25982e-05
1.74875e-05
-5.48998e-05
5.64185e-06
-4.86763e-05
-7.65689e-06
-3.4584e-05
-2.05566e-05
-1.4617e-05
-3.05015e-05
-3.78469e-05
-1.20495e-05
2.60464e-05
-3.10355e-05
4.48421e-05
-4.77691e-05
4.21031e-05
-5.7201e-05
2.69194e-05
-5.69176e-05
5.35845e-06
-4.66947e-05
-1.78798e-05
-2.77144e-05
-3.95369e-05
-9.32697e-07
-5.72832e-05
-6.36038e-05
-1.21061e-05
3.81525e-05
-2.98355e-05
6.25715e-05
-4.4341e-05
5.66086e-05
-5.09666e-05
3.35451e-05
-4.7442e-05
1.83387e-06
-3.40798e-05
-3.1242e-05
-1.23009e-05
-6.13159e-05
1.63649e-05
-8.5949e-05
-9.31833e-05
-1.0436e-05
4.85885e-05
-2.27955e-05
7.4931e-05
-3.09388e-05
6.4752e-05
-3.13444e-05
3.39506e-05
-2.2821e-05
-6.68954e-06
-5.53621e-06
-4.85268e-05
1.85466e-05
-8.53987e-05
4.7305e-05
-0.000114707
-0.000123301
-6.38663e-06
5.49751e-05
-7.26479e-06
7.58091e-05
-2.68498e-06
6.01722e-05
8.38617e-06
2.28794e-05
2.52292e-05
-2.35325e-05
4.73239e-05
-7.06215e-05
7.32977e-05
-0.000111372
0.000100499
-0.000141909
-0.000150491
4.90801e-06
5.00671e-05
2.33712e-05
5.73459e-05
4.83379e-05
3.52055e-05
7.55053e-05
-4.28801e-06
0.000102952
-5.09793e-05
0.000130296
-9.7965e-05
0.000156105
-0.000137182
0.000179785
-0.00016559
-0.000170797
3.92549e-05
8.64478e-05
0.00013338
0.000174884
0.000210382
0.000239581
0.000261918
0.000278242
)
;

boundaryField
{
    inlet
    {
        type            calculated;
        value           uniform -0.0002;
    }
    outlet
    {
        type            calculated;
        value           nonuniform List<scalar> 
15
(
-9.00827e-08
8.3e-06
2.48242e-05
4.59444e-05
7.74223e-05
0.000127689
0.000200092
0.000287717
0.000373371
0.000434104
0.000448872
0.000408728
0.000318093
0.000191491
5.34421e-05
)
;
    }
    fixedWalls
    {
        type            calculated;
        value           uniform 0;
    }
    frontAndBack
    {
        type            empty;
    }
}


// ************************************************************************* //
