/*--------------------------------*- C++ -*----------------------------------*\
| =========                 |                                                 |
| \\      /  F ield         | OpenFOAM Extend Project: Open source CFD        |
|  \\    /   O peration     | Version:  1.6-ext                               |
|   \\  /    A nd           | Web:      www.extend-project.de                 |
|    \\/     M anipulation  |                                                 |
\*---------------------------------------------------------------------------*/
FoamFile
{
    version     2.0;
    format      ascii;
    class       volVectorField;
    location    "3.6";
    object      U;
}
// * * * * * * * * * * * * * * * * * * * * * * * * * * * * * * * * * * * * * //

dimensions      [0 1 -1 0 0 0 0];

internalField   nonuniform List<vector> 
284
(
(0.163777 0.0266059 0)
(0.141784 0.0268369 0)
(0.098725 0.0192583 0)
(0.0662833 0.0121975 0)
(0.0431951 0.00723346 0)
(0.0260312 0.00429078 0)
(0.0129628 0.00253846 0)
(0.00291878 0.000903418 0)
(-0.000705934 -0.00121454 0)
(0.200596 0.0434036 0)
(0.202048 0.0577513 0)
(0.179305 0.0535403 0)
(0.146478 0.0443838 0)
(0.111585 0.0350711 0)
(0.0777633 0.0275351 0)
(0.0465287 0.0214543 0)
(0.0188433 0.0144661 0)
(0.00304658 0.00349282 0)
(0.203092 0.0291644 0)
(0.210993 0.0598998 0)
(0.20457 0.0727228 0)
(0.184177 0.0753963 0)
(0.153537 0.072298 0)
(0.116428 0.0663999 0)
(0.0759901 0.0585819 0)
(0.0348811 0.0456654 0)
(0.00735965 0.0196702 0)
(0.20152 0.0224941 0)
(0.207596 0.0573745 0)
(0.207913 0.0813637 0)
(0.19749 0.0962385 0)
(0.175176 0.103811 0)
(0.141843 0.105778 0)
(0.0991209 0.102236 0)
(0.0492627 0.0874033 0)
(0.0117387 0.0445877 0)
(0.20056 0.0190872 0)
(0.203984 0.0542315 0)
(0.20595 0.0842845 0)
(0.201476 0.108938 0)
(0.186911 0.128169 0)
(0.160086 0.141912 0)
(0.119556 0.148427 0)
(0.0645771 0.137552 0)
(0.0174859 0.0788489 0)
(0.20023 0.0174354 0)
(0.202361 0.0516195 0)
(0.204952 0.0844308 0)
(0.204472 0.115809 0)
(0.19682 0.145501 0)
(0.177975 0.172709 0)
(0.143278 0.194389 0)
(0.0865685 0.195605 0)
(0.027775 0.125055 0)
(0.200214 0.0163142 0)
(0.202433 0.0488983 0)
(0.206423 0.0822496 0)
(0.209954 0.117398 0)
(0.209577 0.155053 0)
(0.201062 0.195082 0)
(0.178299 0.234505 0)
(0.124574 0.254196 0)
(0.0486563 0.19777 0)
(0.200343 0.0149299 0)
(0.203611 0.0449148 0)
(0.210154 0.0768915 0)
(0.218633 0.112902 0)
(0.226645 0.15509 0)
(0.231079 0.205634 0)
(0.224183 0.270296 0)
(0.198183 0.34041 0)
(0.060319 0.287861 0)
(0.200546 0.0128104 0)
(0.205488 0.0387027 0)
(0.215477 0.0673304 0)
(0.229834 0.101059 0)
(0.247699 0.142404 0)
(0.271834 0.193703 0)
(0.299818 0.2612 0)
(0.358734 0.345811 0)
(0.399982 0.430324 0)
(0.200841 0.00962545 0)
(0.207972 0.0296572 0)
(0.221707 0.0531957 0)
(0.241209 0.0820541 0)
(0.266117 0.117617 0)
(0.300903 0.160106 0)
(0.343235 0.212358 0)
(0.411626 0.255609 0)
(0.493181 0.338366 0)
(0.201388 0.00498144 0)
(0.211571 0.0173411 0)
(0.228981 0.0348967 0)
(0.251775 0.0580231 0)
(0.279634 0.0864084 0)
(0.315612 0.118128 0)
(0.360491 0.155855 0)
(0.418199 0.172603 0)
(0.499009 0.228119 0)
(0.202457 -0.00239224 0)
(0.216935 0.0011242 0)
(0.237122 0.0134106 0)
(0.260446 0.0318698 0)
(0.287484 0.0543776 0)
(0.320101 0.0778363 0)
(0.361772 0.104818 0)
(0.409413 0.113856 0)
(0.473566 0.141489 0)
(0.204214 -0.0137057 0)
(0.222719 -0.0177301 0)
(0.240781 -0.00784114 0)
(0.25892 0.00814028 0)
(0.280219 0.026267 0)
(0.306409 0.0435545 0)
(0.341269 0.0614624 0)
(0.380712 0.0678921 0)
(0.429105 0.0787993 0)
(0.201753 -0.0351533 0)
(0.215115 -0.0366999 0)
(0.218501 -0.0228132 0)
(0.222539 -0.00738761 0)
(0.232616 0.00632513 0)
(0.249714 0.0172495 0)
(0.275515 0.026549 0)
(0.306156 0.0296831 0)
(0.341982 0.0324854 0)
(0.16466 -0.0248769 0)
(0.151303 -0.0222808 0)
(0.124195 -0.0126357 0)
(0.110873 -0.00497205 0)
(0.109721 0.00027035 0)
(0.116512 0.00359437 0)
(0.129627 0.00577524 0)
(0.146033 0.00610577 0)
(0.16441 0.00599127 0)
(0.356217 0.16699 0)
(0.186831 0.043381 0)
(0.545923 0.177252 0)
(0.500467 0.0798131 0)
(0.57705 0.16625 0)
(0.597665 0.0970421 0)
(0.543223 0.116905 0)
(0.584033 0.0722928 0)
(0.482208 0.0668665 0)
(0.521993 0.0402374 0)
(0.37932 0.0261354 0)
(0.408096 0.0124558 0)
(0.181823 0.00352644 0)
(0.192936 -0.00057611 0)
(0.190377 -0.00760953 0)
(0.214306 -0.0196539 0)
(0.254587 -0.0403995 0)
(0.295218 -0.070712 0)
(0.329581 -0.106262 0)
(0.356711 -0.141675 0)
(0.370841 -0.168946 0)
(0.38196 -0.187373 0)
(0.372779 -0.181583 0)
(0.46774 0.0145929 0)
(0.45222 -0.0268511 0)
(0.454021 -0.060406 0)
(0.464482 -0.0926019 0)
(0.473883 -0.123944 0)
(0.479762 -0.15208 0)
(0.473213 -0.171033 0)
(0.468144 -0.181772 0)
(0.435754 -0.169036 0)
(0.594022 0.036582 0)
(0.585144 -0.0122501 0)
(0.578261 -0.0526784 0)
(0.572735 -0.087625 0)
(0.563392 -0.117448 0)
(0.550086 -0.140606 0)
(0.52473 -0.153533 0)
(0.503569 -0.157726 0)
(0.452242 -0.141838 0)
(0.601229 0.0264285 0)
(0.605508 -0.0139895 0)
(0.601863 -0.0484174 0)
(0.591239 -0.0773403 0)
(0.571987 -0.100321 0)
(0.545789 -0.115774 0)
(0.508046 -0.122116 0)
(0.474389 -0.120194 0)
(0.413307 -0.104941 0)
(0.544271 0.0103457 0)
(0.551723 -0.0172245 0)
(0.546609 -0.0409524 0)
(0.530274 -0.0598989 0)
(0.503042 -0.0732475 0)
(0.467411 -0.079954 0)
(0.423108 -0.0802003 0)
(0.382531 -0.0746224 0)
(0.323117 -0.0641693 0)
(0.422853 -0.00287464 0)
(0.423478 -0.0164746 0)
(0.411189 -0.0269547 0)
(0.387856 -0.0337527 0)
(0.355638 -0.036821 0)
(0.317914 -0.0363944 0)
(0.277312 -0.0337278 0)
(0.241176 -0.0296934 0)
(0.196012 -0.0270856 0)
(0.194588 -0.00434854 0)
(0.18734 -0.00693541 0)
(0.173296 -0.00813596 0)
(0.154843 -0.00812144 0)
(0.134253 -0.00729894 0)
(0.113618 -0.006124 0)
(0.0942822 -0.00517934 0)
(0.0778307 -0.00472234 0)
(0.0563741 -0.00557186 0)
(-0.00117399 0.00111638 0)
(-0.00780796 0.00331694 0)
(-0.0183971 0.00382242 0)
(-0.0272609 0.003227 0)
(-0.0327566 0.0019536 0)
(-0.033711 0.000190522 0)
(-0.0289142 -0.00188813 0)
(-0.0249074 -0.00367698 0)
(-0.00067578 -0.00623987 0)
(-0.00363478 0.0079019 0)
(-0.0171222 0.0159783 0)
(-0.0355389 0.0163831 0)
(-0.0493506 0.0120577 0)
(-0.0558168 0.005077 0)
(-0.0536379 -0.00315877 0)
(-0.0418029 -0.0115325 0)
(-0.0308377 -0.018178 0)
(0.00609921 -0.0244886 0)
(-0.00467809 0.0198313 0)
(-0.0205813 0.0351847 0)
(-0.0409642 0.0338135 0)
(-0.0549231 0.0225784 0)
(-0.0595801 0.00616974 0)
(-0.054011 -0.0118723 0)
(-0.0372311 -0.0289921 0)
(-0.0217526 -0.0427291 0)
(0.0209394 -0.0496196 0)
(-0.00491123 0.0323004 0)
(-0.020386 0.0542527 0)
(-0.038972 0.0500945 0)
(-0.0503228 0.031037 0)
(-0.0517959 0.00451656 0)
(-0.0430111 -0.0238877 0)
(-0.0233805 -0.0499209 0)
(-0.003369 -0.0712066 0)
(0.0410607 -0.077975 0)
(-0.00468686 0.0438543 0)
(-0.0168961 0.0701883 0)
(-0.0289809 0.062419 0)
(-0.0337384 0.0353784 0)
(-0.029402 -0.000995644 0)
(-0.0161469 -0.0393474 0)
(0.00574304 -0.0733957 0)
(0.0293452 -0.100719 0)
(0.0720806 -0.108815 0)
(-0.00371133 0.0528357 0)
(-0.00843517 0.0783901 0)
(-0.006763 0.0658063 0)
(0.000968895 0.0312859 0)
(0.0152879 -0.0131859 0)
(0.0355835 -0.0590712 0)
(0.060156 -0.0989644 0)
(0.0855587 -0.129528 0)
(0.122503 -0.13857 0)
(0.00110617 0.0607214 0)
(0.0100774 0.0741522 0)
(0.0346022 0.0537666 0)
(0.060876 0.0138178 0)
(0.0889434 -0.0349107 0)
(0.117556 -0.0837905 0)
(0.144345 -0.125229 0)
(0.169346 -0.1556 0)
(0.195852 -0.16317 0)
(0.028953 0.0311672 0)
(0.0566989 0.0377429 0)
(0.109728 0.0151021 0)
(0.154674 -0.0231091 0)
(0.193861 -0.0684828 0)
(0.227694 -0.113539 0)
(0.25278 -0.150257 0)
(0.273859 -0.176367 0)
(0.285115 -0.178664 0)
)
;

boundaryField
{
    inlet
    {
        type            fixedValue;
        value           uniform (0.2 0 0);
    }
    outlet
    {
        type            zeroGradient;
    }
    fixedWalls
    {
        type            fixedValue;
        value           uniform (0 0 0);
    }
    frontAndBack
    {
        type            empty;
    }
}


// ************************************************************************* //
