/*--------------------------------*- C++ -*----------------------------------*\
| =========                 |                                                 |
| \\      /  F ield         | OpenFOAM Extend Project: Open source CFD        |
|  \\    /   O peration     | Version:  1.6-ext                               |
|   \\  /    A nd           | Web:      www.extend-project.de                 |
|    \\/     M anipulation  |                                                 |
\*---------------------------------------------------------------------------*/
FoamFile
{
    version     2.0;
    format      ascii;
    class       surfaceScalarField;
    location    "0.4";
    object      phi;
}
// * * * * * * * * * * * * * * * * * * * * * * * * * * * * * * * * * * * * * //

dimensions      [0 3 -1 0 0 0 0];

internalField   nonuniform List<scalar> 
127
(
4.27473e-06
-4.27473e-06
1.62878e-05
-1.20131e-05
2.95299e-05
-1.3242e-05
4.17798e-05
-1.22499e-05
5.2297e-05
-1.05172e-05
6.07811e-05
-8.48402e-06
6.71395e-05
-6.35846e-06
7.14106e-05
-4.27105e-06
-2.54495e-06
1.00772e-05
-1.43519e-05
3.08925e-05
-3.28284e-05
5.29978e-05
-3.53473e-05
7.32817e-05
-3.25339e-05
9.06328e-05
-2.78683e-05
0.000104617
-2.24682e-05
0.00011511
-1.68512e-05
0.000122129
-1.12907e-05
-6.3322e-06
1.09223e-05
-2.52742e-05
3.49051e-05
-5.68112e-05
6.02311e-05
-6.06733e-05
8.31497e-05
-5.54525e-05
0.000102439
-4.71575e-05
0.000117763
-3.77926e-05
0.000129151
-2.82392e-05
0.000136743
-1.8882e-05
-1.03878e-05
1.01542e-05
-3.54284e-05
3.762e-05
-8.4277e-05
6.64447e-05
-8.94981e-05
9.17489e-05
-8.07567e-05
0.000112292
-6.77005e-05
0.000128093
-5.35938e-05
0.000139565
-3.97109e-05
0.000147132
-2.64489e-05
-1.43965e-05
8.32876e-06
-4.37571e-05
4.15885e-05
-0.000117537
7.5922e-05
-0.000123832
0.00010438
-0.000109215
0.000126084
-8.94049e-05
0.00014191
-6.94198e-05
0.00015297
-5.07711e-05
0.000160141
-3.36192e-05
-1.8144e-05
8.47768e-06
-5.22348e-05
5.04093e-05
-0.000159468
9.20121e-05
-0.000165434
0.000123671
-0.000140874
0.000145682
-0.000111415
0.000160499
-8.42367e-05
0.00017028
-6.05526e-05
0.000176463
-3.98021e-05
-2.13195e-05
3.00856e-05
-8.23204e-05
7.75006e-05
-0.000206883
0.0001225
-0.000210433
0.000153751
-0.000172126
0.000172948
-0.000130612
0.000184446
-9.57348e-05
0.000191414
-6.75204e-05
0.000195676
-4.40647e-05
-2.34696e-05
0.00010432
0.000153916
0.000186042
0.000203105
0.000210746
0.00021412
0.000215794
0.000216871
)
;

boundaryField
{
    inlet
    {
        type            calculated;
        value           nonuniform 0();
    }
    outlet
    {
        type            calculated;
        value           nonuniform List<scalar> 8(7.39555e-05 0.000125917 0.000140798 0.000151141 0.000163888 0.000179639 0.000197826 0.000217452);
    }
    fixedWalls
    {
        type            calculated;
        value           uniform 0;
    }
    frontAndBack
    {
        type            empty;
    }
    procBoundary0to1
    {
        type            processor;
        value           nonuniform List<scalar> 9(-0.00018664 -0.00025648 -0.000242559 -0.000189189 -0.000138253 -9.91084e-05 -6.91948e-05 -4.51414e-05 -2.4051e-05);
    }
}


// ************************************************************************* //
