/*--------------------------------*- C++ -*----------------------------------*\
| =========                 |                                                 |
| \\      /  F ield         | OpenFOAM Extend Project: Open source CFD        |
|  \\    /   O peration     | Version:  1.6-ext                               |
|   \\  /    A nd           | Web:      www.extend-project.de                 |
|    \\/     M anipulation  |                                                 |
\*---------------------------------------------------------------------------*/
FoamFile
{
    version     2.0;
    format      ascii;
    class       volScalarField;
    location    "3";
    object      p;
}
// * * * * * * * * * * * * * * * * * * * * * * * * * * * * * * * * * * * * * //

dimensions      [0 2 -2 0 0 0 0];

internalField   nonuniform List<scalar> 
70
(
-0.0885409
-0.044951
-0.00739344
0.0259978
0.0474911
0.0582235
0.0624701
-0.0767004
-0.0682096
-0.0640929
-0.0591943
-0.0509925
-0.0391939
-0.0260312
-0.013159
-0.00403203
-0.0511456
-0.0518158
-0.0508048
-0.0473251
-0.040398
-0.0304761
-0.0199595
-0.00995178
-0.00393564
-0.0214238
-0.0273821
-0.0295953
-0.0287496
-0.0248936
-0.0187503
-0.012338
-0.00621083
-0.00360126
0.00944618
-0.000974028
-0.00736959
-0.0102432
-0.0102416
-0.00828178
-0.00589857
-0.0033015
-0.00329028
0.0303006
0.0174461
0.00848765
0.00281773
-0.000272068
-0.00154805
-0.00200971
-0.00175057
-0.00303556
0.0412951
0.0274743
0.0168398
0.00921541
0.00410934
0.000946339
-0.000892041
-0.00160724
-0.00289774
0.044428
0.0289058
0.0165371
0.00742542
0.00131084
-0.00227543
-0.0039047
-0.00403277
-0.00391291
)
;

boundaryField
{
    inlet
    {
        type            zeroGradient;
    }
    outlet
    {
        type            totalPressure;
        rho             none;
        psi             none;
        gamma           1;
        p0              uniform 0;
        value           uniform 0;
    }
    fixedWalls
    {
        type            zeroGradient;
    }
    frontAndBack
    {
        type            empty;
    }
    procBoundary1to2
    {
        type            processor;
        value           nonuniform List<scalar> 7(-0.123239 -0.0233178 0.0226848 0.0520577 0.0690495 0.0771007 0.081354);
    }
    procBoundary1to0
    {
        type            processor;
        value           nonuniform List<scalar> 9(-0.0838174 -0.0668217 -0.0647773 -0.0611396 -0.0537453 -0.0421638 -0.0283678 -0.0144475 -0.0034351);
    }
}


// ************************************************************************* //
