/*--------------------------------*- C++ -*----------------------------------*\
| =========                 |                                                 |
| \\      /  F ield         | OpenFOAM Extend Project: Open source CFD        |
|  \\    /   O peration     | Version:  1.6-ext                               |
|   \\  /    A nd           | Web:      www.extend-project.de                 |
|    \\/     M anipulation  |                                                 |
\*---------------------------------------------------------------------------*/
FoamFile
{
    version     2.0;
    format      ascii;
    class       surfaceScalarField;
    location    "3";
    object      phi;
}
// * * * * * * * * * * * * * * * * * * * * * * * * * * * * * * * * * * * * * //

dimensions      [0 3 -1 0 0 0 0];

internalField   nonuniform List<scalar> 
123
(
5.34178e-05
0.000198522
8.42103e-05
0.000482699
7.74298e-05
0.000591229
5.25837e-05
0.000588625
2.45416e-05
0.000531304
5.01429e-06
0.000414564
0.000193058
0.000210765
-1.44821e-06
0.000248505
-3.40276e-05
0.000288646
-6.87723e-05
0.000322168
-0.000107474
0.000345808
-0.000145038
0.000359133
-0.000174652
0.000363219
-0.000189446
0.000360566
-0.000190813
-0.000167476
0.000463719
1.75319e-05
0.000461706
-3.20153e-05
0.000467541
-7.4607e-05
0.000472808
-0.000112741
0.000472335
-0.000144565
0.000463902
-0.000166219
0.000448111
-0.000173655
0.000426638
-0.00016934
-0.00014471
0.000586825
2.19367e-05
0.000580703
-2.5894e-05
0.000572861
-6.67647e-05
0.000560542
-0.000100421
0.00054162
-0.000125643
0.000515346
-0.000139946
0.000483405
-0.000141714
0.000447593
-0.000133528
-0.000111695
0.000598748
1.18132e-05
0.000597702
-2.48481e-05
0.000586861
-5.59231e-05
0.000566569
-8.01295e-05
0.000537078
-9.61525e-05
0.000499784
-0.000102652
0.000458037
-9.99671e-05
0.000414817
-9.0308e-05
-7.45742e-05
0.000543592
-4.75148e-07
0.000541394
-2.26505e-05
0.000526079
-4.06072e-05
0.000498923
-5.29744e-05
0.000462026
-5.92555e-05
0.000418789
-5.94137e-05
0.000373716
-5.48948e-05
0.000330783
-4.73744e-05
-3.97583e-05
0.000419066
-4.97698e-06
0.000409371
-1.29561e-05
0.000387142
-1.83783e-05
0.000355198
-2.10303e-05
0.000317154
-2.12107e-05
0.000277243
-1.95027e-05
0.000239307
-1.69588e-05
0.000206252
-1.43194e-05
-1.34213e-05
0.000188081
0.000175125
0.000156746
0.000135716
0.000114505
9.50025e-05
7.80437e-05
6.37244e-05
)
;

boundaryField
{
    inlet
    {
        type            calculated;
        value           nonuniform 0();
    }
    outlet
    {
        type            calculated;
        value           nonuniform List<scalar> 7(0.000352896 0.000403871 0.000414579 0.000377696 0.000295967 0.000179915 5.03031e-05);
    }
    fixedWalls
    {
        type            calculated;
        value           uniform 0;
    }
    frontAndBack
    {
        type            empty;
    }
    procBoundary1to2
    {
        type            processor;
        value           nonuniform List<scalar> 7(-0.00025194 -0.000513491 -0.000584449 -0.000563779 -0.000503262 -0.000395037 -0.000188043);
    }
    procBoundary1to0
    {
        type            processor;
        value           nonuniform List<scalar> 9(-1.07948e-05 -3.71287e-06 2.86316e-05 7.39526e-05 0.000121398 0.000161328 0.00018536 0.000193467 0.000175145);
    }
}


// ************************************************************************* //
