/*--------------------------------*- C++ -*----------------------------------*\
| =========                 |                                                 |
| \\      /  F ield         | OpenFOAM Extend Project: Open source CFD        |
|  \\    /   O peration     | Version:  1.6-ext                               |
|   \\  /    A nd           | Web:      www.extend-project.de                 |
|    \\/     M anipulation  |                                                 |
\*---------------------------------------------------------------------------*/
FoamFile
{
    version     2.0;
    format      ascii;
    class       volVectorField;
    location    "3";
    object      U;
}
// * * * * * * * * * * * * * * * * * * * * * * * * * * * * * * * * * * * * * //

dimensions      [0 1 -1 0 0 0 0];

internalField   nonuniform List<vector> 
70
(
(0.190091 0.0417614 0)
(0.50197 0.0754234 0)
(0.596707 0.0915786 0)
(0.582366 0.0674006 0)
(0.520969 0.0367527 0)
(0.407587 0.0105056 0)
(0.192262 -0.00112803 0)
(0.196853 -0.0100571 0)
(0.224909 -0.0272944 0)
(0.267616 -0.0577228 0)
(0.307461 -0.0974222 0)
(0.337495 -0.138468 0)
(0.356944 -0.172517 0)
(0.363253 -0.191655 0)
(0.366301 -0.196515 0)
(0.351824 -0.175295 0)
(0.471864 0.00817487 0)
(0.459486 -0.0372594 0)
(0.46292 -0.076826 0)
(0.47151 -0.114775 0)
(0.475406 -0.14884 0)
(0.472195 -0.17415 0)
(0.456925 -0.185114 0)
(0.442528 -0.183758 0)
(0.405443 -0.15928 0)
(0.593291 0.0282287 0)
(0.58481 -0.0241462 0)
(0.577394 -0.068472 0)
(0.568724 -0.106272 0)
(0.553696 -0.136063 0)
(0.531968 -0.154848 0)
(0.499388 -0.159843 0)
(0.470503 -0.153706 0)
(0.417963 -0.129949 0)
(0.598508 0.0186936 0)
(0.601254 -0.024498 0)
(0.594908 -0.0612528 0)
(0.57979 -0.0910539 0)
(0.554648 -0.112329 0)
(0.521287 -0.122995 0)
(0.47852 -0.122415 0)
(0.440278 -0.11293 0)
(0.382142 -0.0934274 0)
(0.541541 0.0047102 0)
(0.546308 -0.0248419 0)
(0.537274 -0.0496371 0)
(0.515814 -0.0681607 0)
(0.483011 -0.0791824 0)
(0.442163 -0.0818861 0)
(0.395518 -0.0773688 0)
(0.354143 -0.0676779 0)
(0.300651 -0.0556493 0)
(0.420262 -0.00588857 0)
(0.417694 -0.0202055 0)
(0.40135 -0.0306612 0)
(0.373575 -0.0365912 0)
(0.33751 -0.0380653 0)
(0.297483 -0.0357507 0)
(0.257255 -0.0313242 0)
(0.223013 -0.0261307 0)
(0.183996 -0.0230641 0)
(0.192402 -0.00506083 0)
(0.183163 -0.00760682 0)
(0.167007 -0.00859447 0)
(0.146762 -0.00827644 0)
(0.125128 -0.00716408 0)
(0.104414 -0.00578828 0)
(0.0860247 -0.00468317 0)
(0.0710003 -0.00408224 0)
(0.0529039 -0.00471904 0)
)
;

boundaryField
{
    inlet
    {
        type            fixedValue;
        value           nonuniform 0();
    }
    outlet
    {
        type            zeroGradient;
    }
    fixedWalls
    {
        type            fixedValue;
        value           uniform (0 0 0);
    }
    frontAndBack
    {
        type            empty;
    }
    procBoundary1to2
    {
        type            processor;
        value           nonuniform List<vector> 7((0.357052 0.165899 0) (0.545614 0.174626 0) (0.576142 0.16338 0) (0.542501 0.114733 0) (0.482234 0.0655217 0) (0.379889 0.0253329 0) (0.182005 0.00320367 0));
    }
    procBoundary1to0
    {
        type            processor;
        value           nonuniform List<vector> 9((0.0312076 0.0335913 0) (0.0623259 0.0333448 0) (0.117338 -0.002135 0) (0.162351 -0.0530658 0) (0.199964 -0.106101 0) (0.230193 -0.150846 0) (0.251451 -0.17914 0) (0.268622 -0.190336 0) (0.277156 -0.175 0));
    }
}


// ************************************************************************* //
