/*--------------------------------*- C++ -*----------------------------------*\
| =========                 |                                                 |
| \\      /  F ield         | OpenFOAM Extend Project: Open source CFD        |
|  \\    /   O peration     | Version:  1.6-ext                               |
|   \\  /    A nd           | Web:      www.extend-project.de                 |
|    \\/     M anipulation  |                                                 |
\*---------------------------------------------------------------------------*/
FoamFile
{
    version     2.0;
    format      ascii;
    class       volScalarField;
    location    "1.1";
    object      p;
}
// * * * * * * * * * * * * * * * * * * * * * * * * * * * * * * * * * * * * * //

dimensions      [0 2 -2 0 0 0 0];

internalField   nonuniform List<scalar> 
284
(
0.244045
0.212609
0.201172
0.196188
0.194095
0.193717
0.194223
0.19526
0.197715
0.214849
0.205885
0.200431
0.197807
0.196737
0.196685
0.197189
0.197989
0.200611
0.203233
0.199679
0.196982
0.195654
0.195349
0.195763
0.196527
0.1974
0.200498
0.194121
0.192896
0.191709
0.191253
0.191447
0.192096
0.192906
0.193663
0.197072
0.186737
0.186275
0.185698
0.185442
0.185495
0.185752
0.185948
0.185852
0.188919
0.180136
0.179879
0.179338
0.178697
0.177924
0.176959
0.175476
0.173061
0.17382
0.173979
0.173711
0.172872
0.171417
0.169199
0.166049
0.161282
0.15347
0.146984
0.168311
0.167943
0.166615
0.164065
0.159933
0.153825
0.144385
0.130354
0.0862507
0.16339
0.162884
0.160972
0.157196
0.150748
0.140401
0.120499
0.0834917
-0.00921788
0.159572
0.158882
0.156375
0.151586
0.14366
0.131495
0.111214
0.0804549
0.0293066
0.157272
0.156205
0.153008
0.147466
0.139042
0.127057
0.109896
0.0860331
0.0547766
0.156892
0.154996
0.15073
0.14445
0.135898
0.124527
0.109677
0.0898555
0.0669338
0.159939
0.15553
0.149339
0.142104
0.133462
0.122756
0.109567
0.0927191
0.0741653
0.16651
0.156762
0.148047
0.140089
0.13163
0.121669
0.109681
0.0948407
0.0784698
0.19503
0.163399
0.149468
0.140584
0.132338
0.123003
0.111652
0.0975495
0.0816672
-0.141656
-0.117535
-0.0392377
-0.0643071
0.0071049
-0.0204195
0.036111
0.0133269
0.052511
0.0333561
0.0606589
0.0436472
0.0643579
0.0468608
-0.105897
-0.0836855
-0.0547064
-0.028858
-0.0114856
-0.00236421
0.0013785
0.00208992
0.000772792
-0.0699027
-0.0576742
-0.0367497
-0.0181551
-0.00610226
-4.33526e-05
0.00214732
0.00215727
0.00047025
-0.0296052
-0.0264253
-0.0169414
-0.0074891
-0.00117551
0.00185022
0.00258345
0.00201286
0.000172774
0.000975476
-0.00311986
-0.00211713
0.000453088
0.00233865
0.0029599
0.00255843
0.00161899
-0.00012405
0.0196162
0.0114039
0.0072228
0.00525368
0.00409867
0.00308771
0.00202313
0.00100109
-0.000388369
0.0294737
0.0188767
0.0117036
0.00715735
0.00431372
0.00247525
0.00120618
0.000326015
-0.000549966
0.0313569
0.0191342
0.0105531
0.00516047
0.00206166
0.000385095
-0.000487342
-0.000882322
-0.000934848
-0.0161475
-0.0143582
-0.0108217
-0.00680476
-0.00332399
-0.00073214
0.000826583
0.00144025
0.00126079
-0.0179135
-0.0163337
-0.0128517
-0.00875375
-0.00501591
-0.00212023
-0.000248522
0.000692538
0.00100587
-0.0214713
-0.0195477
-0.0153396
-0.0104422
-0.0060267
-0.00265462
-0.000494286
0.000599647
0.00105838
-0.0273675
-0.0250002
-0.0193549
-0.0129663
-0.00733246
-0.00316465
-0.000588098
0.000658206
0.00113191
-0.0368781
-0.0334224
-0.0257436
-0.0166675
-0.00902923
-0.00365637
-0.000523335
0.000864191
0.00121014
-0.0527957
-0.0463545
-0.0349186
-0.0217267
-0.011087
-0.00406732
-0.000282374
0.00119596
0.00126262
-0.072764
-0.0616792
-0.0461163
-0.0276057
-0.0131531
-0.00427168
0.000102271
0.00156106
0.00122364
-0.116927
-0.0836267
-0.0569525
-0.0320725
-0.0140343
-0.0039055
0.000628824
0.00186654
0.00104748
)
;

boundaryField
{
    inlet
    {
        type            zeroGradient;
    }
    outlet
    {
        type            totalPressure;
        rho             none;
        psi             none;
        gamma           1;
        p0              uniform 0;
        value           uniform 0;
    }
    fixedWalls
    {
        type            zeroGradient;
    }
    frontAndBack
    {
        type            empty;
    }
}


// ************************************************************************* //
