/*--------------------------------*- C++ -*----------------------------------*\
| =========                 |                                                 |
| \\      /  F ield         | OpenFOAM Extend Project: Open source CFD        |
|  \\    /   O peration     | Version:  1.6-ext                               |
|   \\  /    A nd           | Web:      www.extend-project.de                 |
|    \\/     M anipulation  |                                                 |
\*---------------------------------------------------------------------------*/
FoamFile
{
    version     2.0;
    format      ascii;
    class       surfaceScalarField;
    location    "1.1";
    object      phi;
}
// * * * * * * * * * * * * * * * * * * * * * * * * * * * * * * * * * * * * * //

dimensions      [0 3 -1 0 0 0 0];

internalField   nonuniform List<scalar> 
525
(
0.000161241
3.8759e-05
0.000118942
4.22987e-05
8.57628e-05
3.31795e-05
6.14149e-05
2.43479e-05
4.31546e-05
1.82604e-05
2.7983e-05
1.51715e-05
1.43021e-05
1.3681e-05
3.33189e-06
1.09702e-05
3.33189e-06
0.000205269
3.34897e-05
0.000191509
5.60593e-05
0.000165611
5.90772e-05
0.000135488
5.44704e-05
0.000104556
4.91928e-05
7.3503e-05
4.62246e-05
4.25437e-05
4.46402e-05
1.47264e-05
3.87875e-05
1.80583e-05
0.000208614
2.48753e-05
0.000206727
5.79467e-05
0.000191301
7.45035e-05
0.000165812
7.99594e-05
0.000134074
8.09308e-05
9.82135e-05
8.20847e-05
5.95453e-05
8.33084e-05
2.22572e-05
7.60756e-05
4.03155e-05
0.000204865
2.00099e-05
0.000205305
5.75068e-05
0.000195254
8.45553e-05
0.000175
0.000100213
0.000146575
0.000109355
0.000111403
0.000117257
7.03921e-05
0.00012432
2.77353e-05
0.000118732
6.80507e-05
0.000202269
1.77405e-05
0.000202399
5.7377e-05
0.000195308
9.16461e-05
0.000179658
0.000115863
0.000155753
0.00013326
0.000123608
0.000149403
8.25949e-05
0.000165333
3.52109e-05
0.000166116
0.000103262
0.000201315
1.6426e-05
0.000201876
5.68156e-05
0.000197831
9.56909e-05
0.00018718
0.000126514
0.000168983
0.000151457
0.000141813
0.000176572
0.000102675
0.000204471
4.97536e-05
0.000219037
0.000153015
0.000201423
1.50027e-05
0.000203765
5.44735e-05
0.000203957
9.54993e-05
0.000199742
0.000130729
0.000189549
0.00016165
0.000171353
0.000194769
0.000138866
0.000236958
8.11598e-05
0.000276743
0.000234175
0.000202101
1.29017e-05
0.000207288
4.92863e-05
0.000212988
8.97992e-05
0.000216934
0.000126783
0.000217373
0.000161211
0.000212072
0.00020007
0.000191192
0.000257838
0.000133417
0.000334518
0.000367592
0.000203063
9.83848e-06
0.000211643
4.07066e-05
0.000223532
7.79098e-05
0.00023696
0.000113356
0.000252213
0.000145958
0.000272473
0.000179811
0.000308208
0.000222103
0.000379701
0.000263025
0.00033128
0.000416012
0.000204263
5.57526e-06
0.000216266
2.87042e-05
0.000233742
6.0433e-05
0.000255051
9.2047e-05
0.000281053
0.000119956
0.000315232
0.000145631
0.000363282
0.000174053
0.000442702
0.000183606
0.000243807
0.000530175
0.000206095
-5.19711e-07
0.000221362
1.34375e-05
0.000242865
3.893e-05
0.000268761
6.61506e-05
0.000299226
8.94914e-05
0.000336379
0.000108478
0.000383257
0.000127175
0.000442569
0.000124293
0.000153679
0.000532697
0.000209154
-9.67396e-06
0.000227533
-4.94112e-06
0.000250934
1.55288e-05
0.00027809
3.89944e-05
0.000309057
5.85244e-05
0.000344997
7.25386e-05
0.000388123
8.40486e-05
0.000433205
7.92114e-05
8.78945e-05
0.00049899
0.000213816
-2.34902e-05
0.000232304
-2.34287e-05
0.000253253
-5.42017e-06
0.000277511
1.47367e-05
0.000305826
3.02089e-05
0.000338366
3.99987e-05
0.000376127
4.62877e-05
0.000412317
4.3021e-05
4.30345e-05
0.000457177
0.000211188
-3.46786e-05
0.000217749
-2.99892e-05
0.000226475
-1.41464e-05
0.000241406
-1.93704e-07
0.000263013
8.60126e-06
0.000289447
1.35649e-05
0.000319712
1.60225e-05
0.00034823
1.45034e-05
1.32043e-05
0.00037806
0.000165321
0.000135332
0.000121186
0.000120992
0.000129593
0.000143158
0.000159181
0.000173684
0.000186888
0.000283566
0.000132446
2.69961e-05
0.00025657
0.000525289
0.000137333
3.67852e-05
0.000515499
0.000567945
0.000102085
3.12454e-05
0.000573485
0.000539067
6.2008e-05
1.69159e-05
0.000553396
0.000490403
2.87823e-05
3.35779e-06
0.000503961
0.000399541
7.30165e-06
-2.72644e-06
0.000405625
0.00019419
0.000191464
0.000286028
-7.70458e-05
4.75882e-05
0.000311519
-0.000161547
0.000136056
0.000317302
-0.000208263
0.00020248
0.000308748
-0.00021139
0.000219945
0.00029508
-0.000185785
0.000199453
0.000282265
-0.000149796
0.000162612
0.000272606
-0.000114418
0.000124076
0.000266469
-8.41098e-05
9.02469e-05
-5.63397e-05
5.97424e-05
0.000497081
-5.86275e-05
0.000469342
-0.000133808
0.000430942
-0.000169862
0.000389606
-0.000170054
0.000353449
-0.000149627
0.000325662
-0.00012201
0.0003059
-9.46553e-05
0.000292731
-7.09415e-05
-4.84617e-05
0.000555378
-4.05212e-05
0.000517296
-9.57262e-05
0.00046976
-0.000122327
0.000423042
-0.000123336
0.00038299
-0.000109575
0.000351404
-9.04244e-05
0.000327819
-7.10703e-05
0.000310995
-5.4117e-05
-3.78021e-05
0.000542706
-2.9831e-05
0.000511869
-6.48889e-05
0.000470858
-8.13157e-05
0.000428835
-8.13128e-05
0.000391157
-7.1897e-05
0.000359969
-5.92364e-05
0.000335592
-4.66938e-05
0.000317343
-3.58677e-05
-2.57904e-05
0.000496189
-2.20588e-05
0.000471387
-4.00876e-05
0.000437151
-4.70797e-05
0.000401039
-4.52005e-05
0.000367884
-3.87417e-05
0.000339826
-3.11782e-05
0.000317409
-2.42768e-05
0.000300196
-1.86555e-05
-1.41171e-05
0.000395282
-1.17159e-05
0.000372138
-1.69432e-05
0.000342839
-1.77809e-05
0.000313304
-1.56652e-05
0.000287045
-1.2483e-05
0.000265346
-9.47956e-06
0.000248212
-7.14298e-06
0.000235078
-5.52139e-06
-4.84784e-06
0.000179748
0.000162805
0.000145024
0.000129358
0.000116875
0.000107396
0.000100253
9.47314e-05
-3.43699e-06
3.43699e-06
-2.42792e-06
-1.00907e-06
3.28874e-06
-5.71666e-06
1.16131e-05
-8.32441e-06
2.06168e-05
-9.00364e-06
2.90235e-05
-8.40671e-06
3.6142e-05
-7.1185e-06
4.17609e-05
-5.61894e-06
-4.61874e-06
-1.73992e-06
5.17691e-06
4.38395e-06
-7.13295e-06
1.84036e-05
-1.97363e-05
3.6454e-05
-2.63748e-05
5.51147e-05
-2.76644e-05
7.21901e-05
-2.5482e-05
8.64795e-05
-2.14079e-05
9.74322e-05
-1.65717e-05
-1.23314e-05
-2.31776e-06
7.49467e-06
5.76034e-06
-1.52111e-05
2.43109e-05
-3.82868e-05
4.80187e-05
-5.00826e-05
7.21831e-05
-5.18289e-05
9.39361e-05
-4.7235e-05
0.000111891
-3.93631e-05
0.000125516
-3.01964e-05
-2.16215e-05
-5.9253e-06
1.342e-05
1.92716e-06
-2.30635e-05
2.39168e-05
-6.02764e-05
5.26782e-05
-7.8844e-05
8.15171e-05
-8.06678e-05
0.000106724
-7.24417e-05
0.00012694
-5.95795e-05
0.000141985
-4.5241e-05
-3.16432e-05
-1.0548e-05
2.3968e-05
-2.28624e-06
-3.13253e-05
2.43023e-05
-8.6865e-05
5.90195e-05
-0.000113561
9.27174e-05
-0.000114366
0.000120891
-0.000100615
0.000142522
-8.12109e-05
0.000158136
-6.08549e-05
-4.17219e-05
-1.20906e-05
3.60586e-05
2.85891e-06
-4.62748e-05
3.69798e-05
-0.000120986
7.70434e-05
-0.000153625
0.000113643
-0.000150965
0.000142624
-0.000129596
0.00016376
-0.000102347
0.00017849
-7.55845e-05
-5.08906e-05
1.08646e-05
2.51939e-05
4.14675e-05
-7.68777e-05
8.17237e-05
-0.000161242
0.000120815
-0.000192716
0.00015311
-0.00018326
0.000176883
-0.000153369
0.000193235
-0.000118699
0.000204292
-8.66417e-05
-5.75544e-05
7.27821e-05
0.00013196
0.000173198
0.000200427
0.000216619
0.000225862
0.000231238
0.000234844
)
;

boundaryField
{
    inlet
    {
        type            calculated;
        value           uniform -0.0002;
    }
    outlet
    {
        type            calculated;
        value           nonuniform List<scalar> 
15
(
4.63797e-05
0.000105145
0.000134806
0.000152007
0.000168215
0.000187659
0.000210956
0.000237032
0.000263067
0.000284853
0.000300335
0.000305331
0.000288523
0.000225809
8.98836e-05
)
;
    }
    fixedWalls
    {
        type            calculated;
        value           uniform 0;
    }
    frontAndBack
    {
        type            empty;
    }
}


// ************************************************************************* //
