/*--------------------------------*- C++ -*----------------------------------*\
| =========                 |                                                 |
| \\      /  F ield         | OpenFOAM Extend Project: Open source CFD        |
|  \\    /   O peration     | Version:  1.6-ext                               |
|   \\  /    A nd           | Web:      www.extend-project.de                 |
|    \\/     M anipulation  |                                                 |
\*---------------------------------------------------------------------------*/
FoamFile
{
    version     2.0;
    format      ascii;
    class       volVectorField;
    location    "1.1";
    object      U;
}
// * * * * * * * * * * * * * * * * * * * * * * * * * * * * * * * * * * * * * //

dimensions      [0 1 -1 0 0 0 0];

internalField   nonuniform List<vector> 
284
(
(0.163737 0.0264152 0)
(0.142659 0.0260565 0)
(0.101722 0.0180581 0)
(0.0721258 0.0111226 0)
(0.0515762 0.00680783 0)
(0.0353473 0.00474188 0)
(0.0209003 0.00380263 0)
(0.00715906 0.00253463 0)
(0.000231292 -0.000411889 0)
(0.200527 0.0427626 0)
(0.202704 0.0554627 0)
(0.181316 0.0494606 0)
(0.151206 0.0396295 0)
(0.120214 0.0318003 0)
(0.0893455 0.0275724 0)
(0.0579531 0.0254116 0)
(0.0259653 0.0210154 0)
(0.00501237 0.00798998 0)
(0.203027 0.0283375 0)
(0.210769 0.0576713 0)
(0.202482 0.0679442 0)
(0.180557 0.0681261 0)
(0.151201 0.0653985 0)
(0.117279 0.0638787 0)
(0.0794271 0.0631392 0)
(0.0380748 0.0561821 0)
(0.00843283 0.0282003 0)
(0.201442 0.0218941 0)
(0.206945 0.057521 0)
(0.203254 0.0800731 0)
(0.187407 0.0909762 0)
(0.162589 0.0959553 0)
(0.130805 0.100153 0)
(0.0922432 0.103803 0)
(0.0465717 0.0967733 0)
(0.0112409 0.0533444 0)
(0.200458 0.0186672 0)
(0.203481 0.0574031 0)
(0.201157 0.0886087 0)
(0.189541 0.10894 0)
(0.169681 0.122298 0)
(0.14204 0.134121 0)
(0.105427 0.145056 0)
(0.0573133 0.141603 0)
(0.0157177 0.0842816 0)
(0.200092 0.0170401 0)
(0.202278 0.057306 0)
(0.201555 0.09438 0)
(0.1942 0.122327 0)
(0.180038 0.143722 0)
(0.158222 0.164355 0)
(0.125842 0.185959 0)
(0.0765757 0.192478 0)
(0.0251198 0.125289 0)
(0.200038 0.015761 0)
(0.202821 0.0560897 0)
(0.205003 0.0966053 0)
(0.203121 0.130152 0)
(0.196379 0.1585 0)
(0.183439 0.187914 0)
(0.16068 0.221866 0)
(0.113784 0.242323 0)
(0.0453972 0.190493 0)
(0.200123 0.0140558 0)
(0.204388 0.0524932 0)
(0.210684 0.0939059 0)
(0.215728 0.130656 0)
(0.218417 0.164093 0)
(0.217742 0.201539 0)
(0.207035 0.256003 0)
(0.187715 0.323429 0)
(0.0596499 0.27918 0)
(0.200274 0.0115131 0)
(0.206467 0.0456853 0)
(0.217509 0.08518 0)
(0.230475 0.122031 0)
(0.24463 0.156347 0)
(0.264657 0.194055 0)
(0.286091 0.247347 0)
(0.349489 0.318021 0)
(0.398254 0.407882 0)
(0.200506 0.00791284 0)
(0.208855 0.0354227 0)
(0.224379 0.0703839 0)
(0.244076 0.104353 0)
(0.267118 0.135096 0)
(0.298632 0.165544 0)
(0.334143 0.202152 0)
(0.400502 0.224869 0)
(0.482434 0.297883 0)
(0.200984 0.00303441 0)
(0.211986 0.0218265 0)
(0.231217 0.0506075 0)
(0.255168 0.0801274 0)
(0.283008 0.105795 0)
(0.317091 0.127952 0)
(0.357385 0.150871 0)
(0.409318 0.148995 0)
(0.484036 0.188721 0)
(0.201953 -0.00425401 0)
(0.216599 0.00475826 0)
(0.238408 0.027425 0)
(0.263832 0.0526391 0)
(0.292839 0.0739735 0)
(0.325916 0.0901433 0)
(0.365713 0.10446 0)
(0.408214 0.0987693 0)
(0.463172 0.113041 0)
(0.203598 -0.0150575 0)
(0.221869 -0.0142532 0)
(0.242264 0.00425111 0)
(0.264697 0.0258206 0)
(0.290972 0.0433274 0)
(0.321047 0.0551576 0)
(0.356877 0.0635937 0)
(0.393163 0.0595082 0)
(0.433371 0.0610637 0)
(0.201189 -0.0359236 0)
(0.214579 -0.0345254 0)
(0.221617 -0.0157983 0)
(0.232722 0.0025218 0)
(0.25114 0.0158612 0)
(0.27528 0.0236368 0)
(0.304364 0.027798 0)
(0.333547 0.0255311 0)
(0.363078 0.0237373 0)
(0.164167 -0.0251387 0)
(0.150655 -0.0218215 0)
(0.126503 -0.0110483 0)
(0.118985 -0.00277053 0)
(0.124147 0.00238118 0)
(0.135792 0.00482217 0)
(0.151074 0.00567193 0)
(0.166415 0.00472652 0)
(0.180757 0.00358714 0)
(0.378544 0.155145 0)
(0.230977 0.029319 0)
(0.546982 0.139291 0)
(0.519873 0.0332098 0)
(0.558935 0.121562 0)
(0.579292 0.0403418 0)
(0.522469 0.0793744 0)
(0.553305 0.0237814 0)
(0.475495 0.0419434 0)
(0.502069 0.0085463 0)
(0.390555 0.0138164 0)
(0.406123 -0.00239878 0)
(0.191856 0.000415838 0)
(0.194628 -0.00373003 0)
(0.269571 -0.0795232 0)
(0.308729 -0.163548 0)
(0.322409 -0.216063 0)
(0.314826 -0.224191 0)
(0.300404 -0.199572 0)
(0.286694 -0.16141 0)
(0.275736 -0.122838 0)
(0.268592 -0.0895595 0)
(0.26285 -0.0594691 0)
(0.511142 -0.0667148 0)
(0.493097 -0.148946 0)
(0.454929 -0.191822 0)
(0.409008 -0.193405 0)
(0.368148 -0.16974 0)
(0.336527 -0.137504 0)
(0.313341 -0.105897 0)
(0.298035 -0.0787053 0)
(0.285447 -0.053261 0)
(0.573621 -0.0450473 0)
(0.544129 -0.111801 0)
(0.496544 -0.143818 0)
(0.445153 -0.145118 0)
(0.400229 -0.128822 0)
(0.364614 -0.10615 0)
(0.337333 -0.0832353 0)
(0.318285 -0.0631021 0)
(0.301485 -0.0436433 0)
(0.555875 -0.0350377 0)
(0.533385 -0.0795014 0)
(0.494124 -0.100454 0)
(0.449604 -0.101048 0)
(0.408293 -0.0898973 0)
(0.373661 -0.074441 0)
(0.345857 -0.0588181 0)
(0.32559 -0.0451323 0)
(0.306842 -0.0319826 0)
(0.505983 -0.026427 0)
(0.488391 -0.0518243 0)
(0.456502 -0.0628716 0)
(0.419235 -0.0618245 0)
(0.383427 -0.054075 0)
(0.352483 -0.0442206 0)
(0.327094 -0.0347522 0)
(0.308117 -0.0267449 0)
(0.290187 -0.0196649 0)
(0.404383 -0.0182305 0)
(0.386595 -0.0280681 0)
(0.35876 -0.0305476 0)
(0.327979 -0.0277218 0)
(0.299349 -0.0226538 0)
(0.275165 -0.0175369 0)
(0.255713 -0.013328 0)
(0.241085 -0.0101974 0)
(0.227385 -0.00833405 0)
(0.187184 -0.00684241 0)
(0.172133 -0.00787391 0)
(0.15403 -0.00707114 0)
(0.136839 -0.00540512 0)
(0.122604 -0.00374972 0)
(0.111643 -0.00251432 0)
(0.103413 -0.00176107 0)
(0.0971947 -0.00141924 0)
(0.0911278 -0.00164715 0)
(-0.00249801 0.0021425 0)
(-0.00424567 0.000584895 0)
(-0.000308538 -0.00134164 0)
(0.00724181 -0.00247039 0)
(0.016218 -0.00284157 0)
(0.0250642 -0.00271012 0)
(0.0328622 -0.00231918 0)
(0.0392868 -0.00189464 0)
(0.0451975 -0.00177658 0)
(-0.00241574 0.00464431 0)
(-0.00107473 -0.00280296 0)
(0.010294 -0.0106885 0)
(0.027205 -0.0149898 0)
(0.0460721 -0.0160245 0)
(0.0642111 -0.0149024 0)
(0.0799893 -0.0125907 0)
(0.0926489 -0.00984892 0)
(0.10355 -0.00773173 0)
(-0.00316285 0.00597804 0)
(-0.00147399 -0.0109314 0)
(0.013577 -0.0280229 0)
(0.0359098 -0.0369653 0)
(0.0605374 -0.0385819 0)
(0.0838323 -0.0354439 0)
(0.103797 -0.0297244 0)
(0.11955 -0.0229246 0)
(0.133009 -0.0167063 0)
(-0.00553137 0.00948928 0)
(-0.00643794 -0.0189239 0)
(0.0108239 -0.0480177 0)
(0.0380324 -0.0629992 0)
(0.0677681 -0.0650727 0)
(0.0951557 -0.0590687 0)
(0.117926 -0.049031 0)
(0.13541 -0.0374742 0)
(0.150098 -0.0265301 0)
(-0.00873605 0.0183944 0)
(-0.0125721 -0.0263029 0)
(0.00841572 -0.0718378 0)
(0.0415773 -0.0945292 0)
(0.0769044 -0.0963522 0)
(0.108171 -0.0859016 0)
(0.133019 -0.0701467 0)
(0.151357 -0.0529804 0)
(0.166269 -0.036725 0)
(-0.0111859 0.0282873 0)
(-0.0121046 -0.0375633 0)
(0.018526 -0.102901 0)
(0.0576629 -0.133135 0)
(0.0967316 -0.132667 0)
(0.129689 -0.115403 0)
(0.154572 -0.0922105 0)
(0.172121 -0.0686235 0)
(0.185788 -0.0466491 0)
(0.00278578 0.049003 0)
(0.0206926 -0.0524976 0)
(0.0638309 -0.140842 0)
(0.103519 -0.175925 0)
(0.138417 -0.17016 0)
(0.16618 -0.143995 0)
(0.186026 -0.11241 0)
(0.199433 -0.0824267 0)
(0.20936 -0.0550763 0)
(0.0551523 -0.00785684 0)
(0.101212 -0.110629 0)
(0.1587 -0.189204 0)
(0.190755 -0.214193 0)
(0.209318 -0.198235 0)
(0.221192 -0.163193 0)
(0.228388 -0.124986 0)
(0.232979 -0.0907942 0)
(0.235995 -0.0600538 0)
)
;

boundaryField
{
    inlet
    {
        type            fixedValue;
        value           uniform (0.2 0 0);
    }
    outlet
    {
        type            zeroGradient;
    }
    fixedWalls
    {
        type            fixedValue;
        value           uniform (0 0 0);
    }
    frontAndBack
    {
        type            empty;
    }
}


// ************************************************************************* //
