/*--------------------------------*- C++ -*----------------------------------*\
| =========                 |                                                 |
| \\      /  F ield         | OpenFOAM Extend Project: Open source CFD        |
|  \\    /   O peration     | Version:  1.6-ext                               |
|   \\  /    A nd           | Web:      www.extend-project.de                 |
|    \\/     M anipulation  |                                                 |
\*---------------------------------------------------------------------------*/
FoamFile
{
    version     2.0;
    format      ascii;
    class       vectorField;
    location    "0.75";
    object      accumulatedFluidInterfaceDisplacement;
}
// * * * * * * * * * * * * * * * * * * * * * * * * * * * * * * * * * * * * * //


338
(
(-1.66841e-06 1.22284e-06 -4.96052e-27)
(-9.36511e-07 8.84247e-07 3.59085e-27)
(-5.22978e-06 2.28661e-05 2.85773e-27)
(-5.11399e-06 2.25354e-05 -9.17186e-27)
(-5.09931e-06 2.20911e-05 -2.74685e-26)
(-5.08554e-06 2.16425e-05 -2.74839e-26)
(-5.07278e-06 2.11945e-05 -1.23312e-26)
(-5.05981e-06 2.07496e-05 -4.73319e-28)
(-5.04562e-06 2.03091e-05 7.82221e-26)
(-5.02929e-06 1.98735e-05 3.99767e-26)
(-5.01016e-06 1.94425e-05 -3.86378e-26)
(-4.9878e-06 1.90157e-05 1.22953e-26)
(-4.96194e-06 1.85926e-05 2.48869e-26)
(-4.93247e-06 1.81724e-05 6.00166e-26)
(-4.89939e-06 1.77545e-05 3.5442e-26)
(-4.86276e-06 1.73384e-05 -1.30321e-26)
(-4.8227e-06 1.69236e-05 -5.63625e-26)
(-4.77936e-06 1.65097e-05 -4.52177e-26)
(-4.73287e-06 1.60964e-05 -3.22297e-26)
(-4.68339e-06 1.56835e-05 -3.2593e-26)
(-4.63107e-06 1.52709e-05 -2.99615e-26)
(-4.57605e-06 1.48584e-05 -3.10544e-26)
(-4.51845e-06 1.44462e-05 4.6723e-26)
(-4.45841e-06 1.40343e-05 3.75792e-26)
(-4.39602e-06 1.36228e-05 4.29256e-26)
(-4.33139e-06 1.32118e-05 4.4831e-26)
(-4.26462e-06 1.28015e-05 3.38355e-26)
(-4.19578e-06 1.23922e-05 5.65007e-26)
(-4.12496e-06 1.19841e-05 1.57421e-26)
(-4.05223e-06 1.15775e-05 -7.87527e-27)
(-3.97764e-06 1.11726e-05 2.83878e-26)
(-3.90126e-06 1.07697e-05 2.86497e-26)
(-3.82313e-06 1.03691e-05 -6.7196e-27)
(-3.74332e-06 9.9712e-06 4.78317e-27)
(-3.66186e-06 9.57619e-06 5.09291e-28)
(-3.5788e-06 9.1844e-06 -4.12633e-26)
(-3.49418e-06 8.79614e-06 4.70788e-27)
(-3.40805e-06 8.41171e-06 4.43593e-26)
(-3.32045e-06 8.03139e-06 6.6196e-28)
(-3.23141e-06 7.65547e-06 -3.77353e-26)
(-3.14099e-06 7.28424e-06 -2.73598e-26)
(-3.04922e-06 6.91797e-06 -3.21563e-27)
(-2.95617e-06 6.55695e-06 -1.47717e-26)
(-2.86186e-06 6.20142e-06 -3.18015e-27)
(-2.76636e-06 5.85167e-06 7.31807e-27)
(-2.66972e-06 5.50795e-06 -1.32398e-26)
(-2.572e-06 5.17052e-06 -1.42168e-26)
(-2.47327e-06 4.83964e-06 8.79516e-27)
(-2.37358e-06 4.51559e-06 -1.46124e-27)
(-2.27302e-06 4.19862e-06 -6.59334e-27)
(-2.17167e-06 3.88902e-06 -5.5211e-27)
(-2.06962e-06 3.58708e-06 -2.26661e-27)
(-1.96696e-06 3.29311e-06 -1.68723e-27)
(-1.8638e-06 3.00743e-06 -4.11638e-27)
(-1.76025e-06 2.73039e-06 1.0477e-26)
(-1.65643e-06 2.46239e-06 2.14862e-28)
(-1.55247e-06 2.20383e-06 -8.6284e-27)
(-1.44849e-06 1.95515e-06 -2.11168e-27)
(-1.34464e-06 1.71684e-06 3.55602e-27)
(-1.24103e-06 1.48941e-06 3.36095e-27)
(-1.13783e-06 1.27342e-06 -5.69951e-27)
(-1.03517e-06 1.06948e-06 -1.25488e-27)
(-5.96258e-06 2.2982e-05 -3.94502e-27)
(-5.54741e-06 2.29796e-05 -5.00379e-27)
(-6.69033e-06 2.28645e-05 1.36506e-26)
(-6.37619e-06 2.29777e-05 -4.8101e-28)
(-1.81863e-06 1.40618e-06 -9.04361e-28)
(-1.97193e-06 1.60799e-06 5.00744e-27)
(-2.12323e-06 1.82169e-06 2.40818e-27)
(-2.27255e-06 2.04666e-06 2.77561e-27)
(-2.41991e-06 2.28235e-06 -9.27623e-27)
(-2.56533e-06 2.52825e-06 1.12417e-27)
(-2.7088e-06 2.78387e-06 3.20324e-27)
(-2.85035e-06 3.04878e-06 -1.38738e-26)
(-2.98997e-06 3.32256e-06 5.61796e-27)
(-3.12766e-06 3.60484e-06 -3.99189e-27)
(-3.26342e-06 3.89526e-06 -1.45732e-26)
(-3.39722e-06 4.1935e-06 -4.3023e-27)
(-3.52904e-06 4.49925e-06 -2.68109e-27)
(-3.65886e-06 4.81221e-06 1.78966e-26)
(-3.78664e-06 5.13212e-06 6.48553e-27)
(-3.91233e-06 5.4587e-06 -1.77509e-26)
(-4.03589e-06 5.7917e-06 -2.06035e-26)
(-4.15728e-06 6.13084e-06 -2.11412e-26)
(-4.27642e-06 6.47587e-06 -2.05897e-26)
(-4.39327e-06 6.82653e-06 -3.29686e-27)
(-4.50777e-06 7.18255e-06 1.515e-26)
(-4.61984e-06 7.54368e-06 1.31481e-26)
(-4.72944e-06 7.90963e-06 -1.55145e-26)
(-4.8365e-06 8.28014e-06 -1.97586e-26)
(-4.94095e-06 8.65492e-06 1.1565e-26)
(-5.04274e-06 9.03369e-06 5.44501e-27)
(-5.14182e-06 9.41616e-06 -2.60083e-26)
(-5.23812e-06 9.80204e-06 -5.84591e-27)
(-5.33159e-06 1.0191e-05 4.75194e-26)
(-5.4222e-06 1.05828e-05 3.22957e-26)
(-5.50989e-06 1.09772e-05 6.28727e-27)
(-5.59463e-06 1.13737e-05 -2.90794e-26)
(-5.6764e-06 1.17722e-05 -3.71104e-26)
(-5.75518e-06 1.21723e-05 -1.03215e-28)
(-5.83095e-06 1.25738e-05 -1.57297e-26)
(-5.90371e-06 1.29764e-05 -2.44248e-26)
(-5.97348e-06 1.33799e-05 -8.1e-27)
(-6.04027e-06 1.3784e-05 -4.58369e-26)
(-6.10411e-06 1.41887e-05 -2.7046e-26)
(-6.16505e-06 1.45936e-05 -7.7777e-28)
(-6.22315e-06 1.49988e-05 -2.98442e-26)
(-6.27846e-06 1.54041e-05 3.12739e-26)
(-6.33107e-06 1.58096e-05 5.15863e-26)
(-6.38105e-06 1.62153e-05 -1.06614e-26)
(-6.42852e-06 1.66214e-05 -9.90101e-27)
(-6.47357e-06 1.70279e-05 3.38391e-26)
(-6.5163e-06 1.74354e-05 1.12628e-26)
(-6.55679e-06 1.7844e-05 -1.16388e-26)
(-6.59512e-06 1.82544e-05 -2.45303e-26)
(-6.63129e-06 1.8667e-05 -3.67261e-26)
(-6.66524e-06 1.90824e-05 -3.74696e-26)
(-6.69682e-06 1.95014e-05 -5.10944e-26)
(-6.72569e-06 1.99246e-05 -3.87442e-26)
(-6.75134e-06 2.03523e-05 -5.27797e-26)
(-6.77304e-06 2.07848e-05 1.25366e-27)
(-6.78982e-06 2.12216e-05 -2.7623e-26)
(-6.80055e-06 2.16614e-05 -2.94023e-26)
(-6.80412e-06 2.21018e-05 6.94161e-26)
(-6.80042e-06 2.25384e-05 4.49417e-26)
(-1.23486e-07 7.05831e-08 8.79246e-26)
(-1.23799e-07 9.1016e-08 1.69029e-26)
(-1.29376e-07 1.27702e-07 1.30109e-26)
(-1.45079e-07 1.56079e-07 1.07891e-26)
(-1.70722e-07 1.7801e-07 -4.25999e-26)
(-2.04926e-07 1.96217e-07 -8.39717e-27)
(-2.46197e-07 2.12581e-07 -5.75625e-27)
(-2.93603e-07 2.28763e-07 -1.38941e-26)
(-3.46527e-07 2.46084e-07 2.34324e-26)
(-4.04642e-07 2.65705e-07 1.30838e-26)
(-4.67788e-07 2.88664e-07 -5.13055e-28)
(-5.35935e-07 3.15944e-07 2.22279e-27)
(-6.09139e-07 3.48504e-07 -8.68679e-27)
(-6.87519e-07 3.87321e-07 5.06057e-27)
(-7.71247e-07 4.33413e-07 -2.61414e-27)
(-8.60537e-07 4.87867e-07 -6.10812e-27)
(-9.5564e-07 5.51861e-07 -6.1044e-27)
(-1.05684e-06 6.26695e-07 -1.74144e-26)
(-1.16444e-06 7.13803e-07 -9.24556e-28)
(-1.27879e-06 8.14782e-07 1.87197e-26)
(-1.40021e-06 9.31411e-07 4.53655e-27)
(-1.52908e-06 1.06566e-06 -8.09273e-28)
(-9.0883e-08 -4.64806e-08 -1.64324e-26)
(-8.46788e-07 7.25457e-07 1.8242e-27)
(-7.65425e-07 5.89838e-07 5.20232e-27)
(-6.90237e-07 4.72013e-07 3.14554e-27)
(-6.20793e-07 3.69965e-07 -1.10009e-26)
(-5.56684e-07 2.81876e-07 -3.37652e-28)
(-4.97527e-07 2.06111e-07 6.17838e-27)
(-4.42966e-07 1.41207e-07 -8.99784e-27)
(-3.92683e-07 8.58619e-08 -8.14023e-27)
(-3.46397e-07 3.8929e-08 -1.23976e-27)
(-3.03871e-07 -5.84154e-10 -5.98369e-27)
(-2.64918e-07 -3.35165e-08 1.7073e-27)
(-2.29408e-07 -6.05509e-08 1.61209e-26)
(-1.97271e-07 -8.22099e-08 4.25313e-28)
(-1.68512e-07 -9.88476e-08 -1.12931e-26)
(-1.4323e-07 -1.10642e-07 -1.68187e-26)
(-1.2164e-07 -1.17568e-07 -1.27295e-27)
(-1.04135e-07 -1.19395e-07 -8.16207e-27)
(-9.12897e-08 -1.15593e-07 -1.64083e-26)
(-8.39938e-08 -1.05436e-07 4.3955e-26)
(-8.29292e-08 -8.7643e-08 1.80309e-26)
(-8.74325e-08 -6.15428e-08 -3.48763e-26)
(-1.66841e-06 1.22284e-06 -4.96052e-27)
(-9.36511e-07 8.84247e-07 3.59085e-27)
(-5.22978e-06 2.28661e-05 2.85773e-27)
(-5.11399e-06 2.25354e-05 -9.17186e-27)
(-5.09931e-06 2.20911e-05 -2.74685e-26)
(-5.08554e-06 2.16425e-05 -2.74839e-26)
(-5.07278e-06 2.11945e-05 -1.23312e-26)
(-5.05981e-06 2.07496e-05 -4.73319e-28)
(-5.04562e-06 2.03091e-05 7.82221e-26)
(-5.02929e-06 1.98735e-05 3.99767e-26)
(-5.01016e-06 1.94425e-05 -3.86378e-26)
(-4.9878e-06 1.90157e-05 1.22953e-26)
(-4.96194e-06 1.85926e-05 2.48869e-26)
(-4.93247e-06 1.81724e-05 6.00166e-26)
(-4.89939e-06 1.77545e-05 3.5442e-26)
(-4.86276e-06 1.73384e-05 -1.30321e-26)
(-4.8227e-06 1.69236e-05 -5.63625e-26)
(-4.77936e-06 1.65097e-05 -4.52177e-26)
(-4.73287e-06 1.60964e-05 -3.22297e-26)
(-4.68339e-06 1.56835e-05 -3.2593e-26)
(-4.63107e-06 1.52709e-05 -2.99615e-26)
(-4.57605e-06 1.48584e-05 -3.10544e-26)
(-4.51845e-06 1.44462e-05 4.6723e-26)
(-4.45841e-06 1.40343e-05 3.75792e-26)
(-4.39602e-06 1.36228e-05 4.29256e-26)
(-4.33139e-06 1.32118e-05 4.4831e-26)
(-4.26462e-06 1.28015e-05 3.38355e-26)
(-4.19578e-06 1.23922e-05 5.65007e-26)
(-4.12496e-06 1.19841e-05 1.57421e-26)
(-4.05223e-06 1.15775e-05 -7.87527e-27)
(-3.97764e-06 1.11726e-05 2.83878e-26)
(-3.90126e-06 1.07697e-05 2.86497e-26)
(-3.82313e-06 1.03691e-05 -6.7196e-27)
(-3.74332e-06 9.9712e-06 4.78317e-27)
(-3.66186e-06 9.57619e-06 5.09291e-28)
(-3.5788e-06 9.1844e-06 -4.12633e-26)
(-3.49418e-06 8.79614e-06 4.70788e-27)
(-3.40805e-06 8.41171e-06 4.43593e-26)
(-3.32045e-06 8.03139e-06 6.6196e-28)
(-3.23141e-06 7.65547e-06 -3.77353e-26)
(-3.14099e-06 7.28424e-06 -2.73598e-26)
(-3.04922e-06 6.91797e-06 -3.21563e-27)
(-2.95617e-06 6.55695e-06 -1.47717e-26)
(-2.86186e-06 6.20142e-06 -3.18015e-27)
(-2.76636e-06 5.85167e-06 7.31807e-27)
(-2.66972e-06 5.50795e-06 -1.32398e-26)
(-2.572e-06 5.17052e-06 -1.42168e-26)
(-2.47327e-06 4.83964e-06 8.79516e-27)
(-2.37358e-06 4.51559e-06 -1.46124e-27)
(-2.27302e-06 4.19862e-06 -6.59334e-27)
(-2.17167e-06 3.88902e-06 -5.5211e-27)
(-2.06962e-06 3.58708e-06 -2.26661e-27)
(-1.96696e-06 3.29311e-06 -1.68723e-27)
(-1.8638e-06 3.00743e-06 -4.11638e-27)
(-1.76025e-06 2.73039e-06 1.0477e-26)
(-1.65643e-06 2.46239e-06 2.14862e-28)
(-1.55247e-06 2.20383e-06 -8.6284e-27)
(-1.44849e-06 1.95515e-06 -2.11168e-27)
(-1.34464e-06 1.71684e-06 3.55602e-27)
(-1.24103e-06 1.48941e-06 3.36095e-27)
(-1.13783e-06 1.27342e-06 -5.69951e-27)
(-1.03517e-06 1.06948e-06 -1.25488e-27)
(-5.96258e-06 2.2982e-05 -3.94502e-27)
(-5.54741e-06 2.29796e-05 -5.00379e-27)
(-6.69033e-06 2.28645e-05 1.36506e-26)
(-6.37619e-06 2.29777e-05 -4.8101e-28)
(-1.81863e-06 1.40618e-06 -9.04361e-28)
(-1.97193e-06 1.60799e-06 5.00744e-27)
(-2.12323e-06 1.82169e-06 2.40818e-27)
(-2.27255e-06 2.04666e-06 2.77561e-27)
(-2.41991e-06 2.28235e-06 -9.27623e-27)
(-2.56533e-06 2.52825e-06 1.12417e-27)
(-2.7088e-06 2.78387e-06 3.20324e-27)
(-2.85035e-06 3.04878e-06 -1.38738e-26)
(-2.98997e-06 3.32256e-06 5.61796e-27)
(-3.12766e-06 3.60484e-06 -3.99189e-27)
(-3.26342e-06 3.89526e-06 -1.45732e-26)
(-3.39722e-06 4.1935e-06 -4.3023e-27)
(-3.52904e-06 4.49925e-06 -2.68109e-27)
(-3.65886e-06 4.81221e-06 1.78966e-26)
(-3.78664e-06 5.13212e-06 6.48553e-27)
(-3.91233e-06 5.4587e-06 -1.77509e-26)
(-4.03589e-06 5.7917e-06 -2.06035e-26)
(-4.15728e-06 6.13084e-06 -2.11412e-26)
(-4.27642e-06 6.47587e-06 -2.05897e-26)
(-4.39327e-06 6.82653e-06 -3.29686e-27)
(-4.50777e-06 7.18255e-06 1.515e-26)
(-4.61984e-06 7.54368e-06 1.31481e-26)
(-4.72944e-06 7.90963e-06 -1.55145e-26)
(-4.8365e-06 8.28014e-06 -1.97586e-26)
(-4.94095e-06 8.65492e-06 1.1565e-26)
(-5.04274e-06 9.03369e-06 5.44501e-27)
(-5.14182e-06 9.41616e-06 -2.60083e-26)
(-5.23812e-06 9.80204e-06 -5.84591e-27)
(-5.33159e-06 1.0191e-05 4.75194e-26)
(-5.4222e-06 1.05828e-05 3.22957e-26)
(-5.50989e-06 1.09772e-05 6.28727e-27)
(-5.59463e-06 1.13737e-05 -2.90794e-26)
(-5.6764e-06 1.17722e-05 -3.71104e-26)
(-5.75518e-06 1.21723e-05 -1.03215e-28)
(-5.83095e-06 1.25738e-05 -1.57297e-26)
(-5.90371e-06 1.29764e-05 -2.44248e-26)
(-5.97348e-06 1.33799e-05 -8.1e-27)
(-6.04027e-06 1.3784e-05 -4.58369e-26)
(-6.10411e-06 1.41887e-05 -2.7046e-26)
(-6.16505e-06 1.45936e-05 -7.7777e-28)
(-6.22315e-06 1.49988e-05 -2.98442e-26)
(-6.27846e-06 1.54041e-05 3.12739e-26)
(-6.33107e-06 1.58096e-05 5.15863e-26)
(-6.38105e-06 1.62153e-05 -1.06614e-26)
(-6.42852e-06 1.66214e-05 -9.90101e-27)
(-6.47357e-06 1.70279e-05 3.38391e-26)
(-6.5163e-06 1.74354e-05 1.12628e-26)
(-6.55679e-06 1.7844e-05 -1.16388e-26)
(-6.59512e-06 1.82544e-05 -2.45303e-26)
(-6.63129e-06 1.8667e-05 -3.67261e-26)
(-6.66524e-06 1.90824e-05 -3.74696e-26)
(-6.69682e-06 1.95014e-05 -5.10944e-26)
(-6.72569e-06 1.99246e-05 -3.87442e-26)
(-6.75134e-06 2.03523e-05 -5.27797e-26)
(-6.77304e-06 2.07848e-05 1.25366e-27)
(-6.78982e-06 2.12216e-05 -2.7623e-26)
(-6.80055e-06 2.16614e-05 -2.94023e-26)
(-6.80412e-06 2.21018e-05 6.94161e-26)
(-6.80042e-06 2.25384e-05 4.49417e-26)
(-1.23486e-07 7.05831e-08 8.79246e-26)
(-1.23799e-07 9.1016e-08 1.69029e-26)
(-1.29376e-07 1.27702e-07 1.30109e-26)
(-1.45079e-07 1.56079e-07 1.07891e-26)
(-1.70722e-07 1.7801e-07 -4.25999e-26)
(-2.04926e-07 1.96217e-07 -8.39717e-27)
(-2.46197e-07 2.12581e-07 -5.75625e-27)
(-2.93603e-07 2.28763e-07 -1.38941e-26)
(-3.46527e-07 2.46084e-07 2.34324e-26)
(-4.04642e-07 2.65705e-07 1.30838e-26)
(-4.67788e-07 2.88664e-07 -5.13055e-28)
(-5.35935e-07 3.15944e-07 2.22279e-27)
(-6.09139e-07 3.48504e-07 -8.68679e-27)
(-6.87519e-07 3.87321e-07 5.06057e-27)
(-7.71247e-07 4.33413e-07 -2.61414e-27)
(-8.60537e-07 4.87867e-07 -6.10812e-27)
(-9.5564e-07 5.51861e-07 -6.1044e-27)
(-1.05684e-06 6.26695e-07 -1.74144e-26)
(-1.16444e-06 7.13803e-07 -9.24556e-28)
(-1.27879e-06 8.14782e-07 1.87197e-26)
(-1.40021e-06 9.31411e-07 4.53655e-27)
(-1.52908e-06 1.06566e-06 -8.09273e-28)
(-9.0883e-08 -4.64806e-08 -1.64324e-26)
(-8.46788e-07 7.25457e-07 1.8242e-27)
(-7.65425e-07 5.89838e-07 5.20232e-27)
(-6.90237e-07 4.72013e-07 3.14554e-27)
(-6.20793e-07 3.69965e-07 -1.10009e-26)
(-5.56684e-07 2.81876e-07 -3.37652e-28)
(-4.97527e-07 2.06111e-07 6.17838e-27)
(-4.42966e-07 1.41207e-07 -8.99784e-27)
(-3.92683e-07 8.58619e-08 -8.14023e-27)
(-3.46397e-07 3.8929e-08 -1.23976e-27)
(-3.03871e-07 -5.84154e-10 -5.98369e-27)
(-2.64918e-07 -3.35165e-08 1.7073e-27)
(-2.29408e-07 -6.05509e-08 1.61209e-26)
(-1.97271e-07 -8.22099e-08 4.25313e-28)
(-1.68512e-07 -9.88476e-08 -1.12931e-26)
(-1.4323e-07 -1.10642e-07 -1.68187e-26)
(-1.2164e-07 -1.17568e-07 -1.27295e-27)
(-1.04135e-07 -1.19395e-07 -8.16207e-27)
(-9.12897e-08 -1.15593e-07 -1.64083e-26)
(-8.39938e-08 -1.05436e-07 4.3955e-26)
(-8.29292e-08 -8.7643e-08 1.80309e-26)
(-8.74325e-08 -6.15428e-08 -3.48763e-26)
)


// ************************************************************************* //
