/*--------------------------------*- C++ -*----------------------------------*\
| =========                 |                                                 |
| \\      /  F ield         | OpenFOAM Extend Project: Open source CFD        |
|  \\    /   O peration     | Version:  1.6-ext                               |
|   \\  /    A nd           | Web:      www.extend-project.de                 |
|    \\/     M anipulation  |                                                 |
\*---------------------------------------------------------------------------*/
FoamFile
{
    version     2.0;
    format      ascii;
    class       tetPointVectorField;
    location    "0.75";
    object      motionU;
}
// * * * * * * * * * * * * * * * * * * * * * * * * * * * * * * * * * * * * * //

dimensions      [0 1 -1 0 0 0 0];

internalField   nonuniform List<vector> 
147960
(
(0 0 0)
(0.000170582 0.00020807 0)
(-0.000304867 0.000651948 9.77322e-25)
(0.000421524 0.000672665 1.29171e-24)
(0.000929061 0.0242776 2.6303e-23)
(0.00104303 0.0239507 5.3999e-23)
(0.00105115 0.0235132 5.68932e-23)
(0.00105854 0.0230732 -4.25404e-24)
(0.00106488 0.0226317 3.68587e-23)
(0.00107032 0.0221891 4.33379e-23)
(0.00107509 0.0217457 -1.40103e-23)
(0.00107941 0.0213017 2.29207e-23)
(0.0010835 0.020857 -2.21898e-23)
(0.00108753 0.0204115 -2.6582e-23)
(0.00109162 0.0199649 2.12025e-23)
(0.00109583 0.019517 -2.55036e-23)
(0.00110017 0.0190674 -3.12682e-23)
(0.00110462 0.0186159 3.47219e-23)
(0.00110912 0.0181623 1.25516e-23)
(0.00111357 0.0177064 2.52551e-25)
(0.00111785 0.017248 4.06019e-23)
(0.00112182 0.0167872 2.903e-23)
(0.00112535 0.0163241 2.94574e-23)
(0.00112828 0.0158588 -5.3696e-25)
(0.00113046 0.0153915 -1.23825e-23)
(0.00113175 0.0149226 1.01482e-23)
(0.00113201 0.0144526 -2.74874e-23)
(0.00113114 0.0139818 -2.0412e-23)
(0.00112901 0.0135109 -8.31507e-24)
(0.00112556 0.0130404 -3.00147e-23)
(0.00112071 0.0125711 -2.81736e-23)
(0.00111442 0.0121036 -1.33148e-23)
(0.00110668 0.0116386 1.5774e-23)
(0.00109748 0.0111769 4.49276e-23)
(0.00108685 0.010719 1.98168e-23)
(0.00107482 0.0102658 -1.21538e-25)
(0.00106145 0.00981785 7.16812e-24)
(0.00104682 0.00937578 2.49987e-23)
(0.00103102 0.00894019 1.10202e-24)
(0.00101414 0.00851158 -1.25341e-23)
(0.0009963 0.00809044 -6.28347e-24)
(0.000977603 0.00767715 -5.71544e-24)
(0.000958165 0.00727207 1.12567e-24)
(0.0009381 0.00687546 1.9087e-23)
(0.000917514 0.00648755 1.84154e-23)
(0.000896508 0.00610848 1.08427e-23)
(0.000875167 0.00573836 3.5459e-23)
(0.000853567 0.00537725 2.34825e-23)
(0.000831761 0.00502518 1.30787e-24)
(0.000809789 0.00468213 1.51874e-23)
(0.000787666 0.00434809 1.5981e-23)
(0.000765388 0.00402304 -9.91287e-25)
(0.00074293 0.00370695 -8.89539e-24)
(0.000720246 0.00339984 2.49108e-24)
(0.000697267 0.00310174 7.3648e-24)
(0.000673905 0.00281273 -5.01826e-24)
(0.000650052 0.00253293 -9.56646e-26)
(0.000625578 0.00226252 -3.2728e-24)
(0.000600331 0.00200177 -8.89819e-25)
(0.000574134 0.00175101 -3.21418e-24)
(0.00054678 0.00151067 -1.90155e-24)
(0.000518028 0.0012813 1.71504e-24)
(0.000487595 0.00106357 -2.76741e-24)
(0.000455152 0.000858338 -7.86091e-24)
(0.000174327 0.0243843 -3.77984e-24)
(0.000603889 0.024386 -4.7421e-24)
(-0.000576157 0.0242686 -1.07247e-23)
(-0.000254569 0.0243808 4.25012e-24)
(-0.00032775 0.000837513 -1.09901e-24)
(-0.000349236 0.00104264 -7.09449e-25)
(-0.000368873 0.00126026 -6.84008e-24)
(-0.000386994 0.00148952 8.27821e-25)
(-0.000403887 0.00172976 3.24429e-24)
(-0.000419802 0.00198043 4.76796e-24)
(-0.000434949 0.00224109 -9.80283e-25)
(-0.000449512 0.00251141 -3.35015e-24)
(-0.000463648 0.00279113 4.15088e-26)
(-0.000477492 0.00308007 5.05147e-25)
(-0.000491157 0.0033781 -7.21321e-24)
(-0.000504737 0.00368514 4.79786e-24)
(-0.000518303 0.00400116 1.41366e-23)
(-0.000531905 0.00432616 -3.24982e-24)
(-0.000545573 0.00466014 -4.75065e-24)
(-0.000559312 0.00500312 -2.42356e-23)
(-0.000573108 0.00535514 -2.07842e-23)
(-0.000586925 0.00571618 -2.56995e-24)
(-0.000600707 0.00608623 -1.34773e-23)
(-0.000614379 0.00646523 -2.57234e-23)
(-0.000627855 0.00685307 -3.17823e-23)
(-0.000641032 0.0072496 6.31309e-24)
(-0.000653801 0.00765461 2.72174e-23)
(-0.000666047 0.00806782 6.88345e-24)
(-0.000677653 0.00848888 -2.92179e-23)
(-0.000688505 0.0089174 -1.80446e-23)
(-0.000698492 0.00935292 -3.15906e-25)
(-0.000707513 0.00979491 2.20664e-23)
(-0.00071548 0.0102428 1.36026e-23)
(-0.000722318 0.010696 1.46485e-23)
(-0.000727969 0.0111538 2.831e-23)
(-0.000732395 0.0116155 3.04736e-23)
(-0.000735578 0.0120805 3.81446e-23)
(-0.000737524 0.012548 1.00101e-23)
(-0.00073826 0.0130174 -3.32935e-23)
(-0.000737837 0.0134879 -5.178e-23)
(-0.000736331 0.0139589 -2.70576e-23)
(-0.000733837 0.0144298 -2.63778e-23)
(-0.000730472 0.0149 4.12525e-23)
(-0.000726374 0.0153691 1.00594e-22)
(-0.000721692 0.0158366 7.2774e-23)
(-0.000716589 0.0163022 3.39837e-23)
(-0.000711237 0.0167657 3.27467e-23)
(-0.00070581 0.0172268 2.04365e-23)
(-0.000700479 0.0176855 -1.49625e-23)
(-0.000695409 0.0181419 -3.97041e-24)
(-0.000690751 0.018596 9.58793e-23)
(-0.000686638 0.019048 4.64995e-23)
(-0.000683174 0.0194981 -4.79345e-23)
(-0.000680435 0.0199467 -1.21313e-23)
(-0.000678457 0.0203939 -3.22814e-23)
(-0.000677235 0.0208402 1.28557e-23)
(-0.000676719 0.0212856 3.53512e-23)
(-0.000676817 0.0217305 6.17677e-25)
(-0.000677403 0.0221748 5.04634e-23)
(-0.000678328 0.0226185 5.78461e-23)
(-0.000679454 0.0230611 -1.09166e-23)
(-0.000680664 0.0235021 -5.24559e-23)
(-0.000682168 0.0239404 -4.16117e-23)
(0.000647632 0.0207035 0)
(-0.000594967 0.0240467 0)
(-0.00056827 0.0238951 0)
(-0.000535424 0.0237335 0)
(-0.000499004 0.0235577 0)
(-0.000452174 0.0233689 0)
(-0.000397888 0.0231677 0)
(-0.000328918 0.0229536 0)
(-0.000255237 0.0227258 0)
(-0.00016374 0.0224849 0)
(-6.32765e-05 0.0222285 0)
(4.39557e-05 0.0219568 0)
(0.000179892 0.0216703 0)
(0.00031582 0.0213649 0)
(0.000464217 0.021042 0)
(3.08695e-05 0.000878798 0)
(1.79573e-05 0.00100369 0)
(4.31917e-06 0.00114214 0)
(-9.6902e-06 0.00129431 0)
(-2.36519e-05 0.00146065 0)
(-3.75828e-05 0.00164101 0)
(-5.12301e-05 0.0018347 0)
(-6.43118e-05 0.00204148 0)
(-7.65172e-05 0.00226102 0)
(-8.78481e-05 0.00249299 0)
(-9.85393e-05 0.00273706 0)
(-0.00010876 0.00299289 0)
(-0.000118418 0.00326012 0)
(-0.00012727 0.00353844 0)
(-0.000135163 0.00382748 0)
(-0.000142188 0.00412696 0)
(-0.000148638 0.00443655 0)
(-0.000154699 0.00475597 0)
(-0.000160193 0.00508498 0)
(-0.000164987 0.00542317 0)
(-0.000168903 0.00577117 0)
(-0.000171964 0.00612859 0)
(-0.000174679 0.00649389 0)
(-0.000177075 0.00686698 0)
(-0.000179178 0.00724762 0)
(-0.000180942 0.00763553 0)
(-0.000182291 0.00803036 0)
(-0.000183106 0.00843172 0)
(-0.000183186 0.00883919 0)
(-0.000182341 0.00925227 0)
(-0.000180599 0.00967049 0)
(-0.000178246 0.0100933 0)
(-0.000175543 0.0105201 0)
(-0.000172429 0.0109504 0)
(-0.000168699 0.0113836 0)
(-0.000164505 0.0118188 0)
(-0.000159615 0.0122565 0)
(-0.00015412 0.0126967 0)
(-0.000148682 0.0131371 0)
(-0.000143116 0.0135767 0)
(-0.000137282 0.0140151 0)
(-0.000130725 0.0144513 0)
(-0.000122387 0.0148848 0)
(-0.000110869 0.0153146 0)
(-9.50338e-05 0.0157399 0)
(-7.47885e-05 0.0161596 0)
(-5.16334e-05 0.0165724 0)
(-2.78084e-05 0.0169773 0)
(-3.81176e-06 0.0173729 0)
(2.29981e-05 0.017758 0)
(5.60271e-05 0.0181309 0)
(9.56191e-05 0.0184898 0)
(0.000139208 0.0188323 0)
(0.00018451 0.0191561 0)
(0.000231218 0.0194587 0)
(0.000281293 0.019738 0)
(0.000337546 0.0199914 0)
(0.000401905 0.0202166 0)
(0.000475234 0.0204116 0)
(0.000558484 0.0205744 0)
(0.00191628 0.0205599 0)
(0.00175786 0.020923 0)
(0.0016254 0.0212671 0)
(0.00151942 0.021592 0)
(0.00140436 0.0218952 0)
(0.00130528 0.0221803 0)
(0.0012301 0.0224491 0)
(0.00115338 0.0227004 0)
(0.00109064 0.0229361 0)
(0.00104429 0.0231576 0)
(0.00100138 0.0233642 0)
(0.00097368 0.0235573 0)
(0.0009569 0.0237365 0)
(0.000949862 0.0239007 0)
(0.00096133 0.0240541 0)
(0.0004843 0.000935848 0)
(0.000415866 0.000661972 0)
(0.00040771 0.000659266 0)
(0.000399408 0.000663166 0)
(0.000390616 0.000673308 0)
(0.000383356 0.000688046 0)
(0.000378127 0.000706863 0)
(0.000374783 0.000728959 0)
(0.000374707 0.000752356 0)
(0.000377463 0.000777701 0)
(0.000383438 0.000804051 0)
(0.000395244 0.000830344 0)
(0.000410646 0.000857987 0)
(0.000431096 0.000884964 0)
(0.000456678 0.00090996 0)
(0.00186709 0.0204355 0)
(0.00182441 0.0202769 0)
(0.00178865 0.0200859 0)
(0.00175835 0.0198643 0)
(0.00173252 0.0196144 0)
(0.00170977 0.0193384 0)
(0.00168764 0.0190389 0)
(0.00166449 0.0187183 0)
(0.00164091 0.0183789 0)
(0.00161924 0.0180231 0)
(0.00160199 0.0176533 0)
(0.0015888 0.0172714 0)
(0.00157652 0.0168791 0)
(0.0015629 0.0164775 0)
(0.00154858 0.0160679 0)
(0.00153566 0.0156517 0)
(0.00152549 0.0152299 0)
(0.00151789 0.0148036 0)
(0.00151178 0.0143738 0)
(0.00150578 0.0139412 0)
(0.00149885 0.0135066 0)
(0.00149048 0.0130707 0)
(0.0014805 0.0126342 0)
(0.00146872 0.012198 0)
(0.00145567 0.0117642 0)
(0.00144143 0.011333 0)
(0.00142578 0.0109037 0)
(0.0014089 0.0104774 0)
(0.00139061 0.0100546 0)
(0.0013709 0.0096357 0)
(0.00135005 0.00922145 0)
(0.00132843 0.00881232 0)
(0.00130613 0.0084088 0)
(0.00128304 0.00801134 0)
(0.00125905 0.00762036 0)
(0.0012341 0.00723622 0)
(0.00120821 0.00685925 0)
(0.00118138 0.00648975 0)
(0.0011537 0.00612792 0)
(0.00112526 0.00577387 0)
(0.00109664 0.00542913 0)
(0.00106792 0.00509413 0)
(0.00103888 0.00476828 0)
(0.00100936 0.00445199 0)
(0.000979225 0.00414547 0)
(0.000948634 0.003849 0)
(0.000917853 0.00356284 0)
(0.000886921 0.00328736 0)
(0.000855627 0.00302292 0)
(0.000823679 0.00276989 0)
(0.000790962 0.00252858 0)
(0.000757663 0.00229927 0)
(0.000724096 0.00208223 0)
(0.000690407 0.0018778 0)
(0.000656459 0.00168634 0)
(0.000622098 0.00150811 0)
(0.00058751 0.00134384 0)
(0.000553141 0.00119375 0)
(0.000518839 0.00105763 0)
(0.000490893 0.00103658 0)
(0.000463848 0.00101655 0)
(0.000445032 0.000993378 0)
(0.000431104 0.00097 0)
(0.000418454 0.000949193 0)
(0.000413855 0.00092791 0)
(0.000411783 0.000907437 0)
(0.000411157 0.000889767 0)
(0.00041599 0.000873195 0)
(0.00042064 0.000860308 0)
(0.00042798 0.000851214 0)
(0.000436168 0.000845912 0)
(0.000443878 0.000846087 0)
(0.000450979 0.000851032 0)
(0.000524259 0.00117856 0)
(0.000497307 0.00116272 0)
(0.000480361 0.0011435 0)
(0.000465818 0.00112577 0)
(0.000453689 0.0011102 0)
(0.000449927 0.00109375 0)
(0.000446811 0.00107916 0)
(0.000447085 0.00106694 0)
(0.000451712 0.00105592 0)
(0.00045594 0.00104867 0)
(0.000463137 0.00104432 0)
(0.000470472 0.00104333 0)
(0.000477341 0.00104678 0)
(0.000483823 0.0010538 0)
(0.000557283 0.0013342 0)
(0.000531165 0.001323 0)
(0.000515394 0.00130856 0)
(0.000499949 0.00129673 0)
(0.000488324 0.00128621 0)
(0.000484922 0.00127484 0)
(0.000480964 0.00126629 0)
(0.00048138 0.00125936 0)
(0.000485856 0.00125358 0)
(0.000489302 0.00125133 0)
(0.000496137 0.00125131 0)
(0.000502651 0.00125413 0)
(0.000508758 0.00126061 0)
(0.000514678 0.00126995 0)
(0.000590317 0.00150427 0)
(0.000564906 0.00149761 0)
(0.000549845 0.00148833 0)
(0.00053332 0.00148249 0)
(0.000522208 0.00147756 0)
(0.000519047 0.00147114 0)
(0.000513875 0.00146797 0)
(0.00051429 0.0014661 0)
(0.000518416 0.00146505 0)
(0.000520906 0.00146735 0)
(0.000527186 0.0014713 0)
(0.00053302 0.00147752 0)
(0.000538393 0.00148674 0)
(0.000543807 0.0014981 0)
(0.00062289 0.00168811 0)
(0.000598034 0.0016863 0)
(0.00058366 0.00168231 0)
(0.000565922 0.00168235 0)
(0.000554849 0.00168272 0)
(0.0005521 0.00168127 0)
(0.000545714 0.00168324 0)
(0.000545486 0.00168625 0)
(0.000549478 0.00168959 0)
(0.000551055 0.00169589 0)
(0.000556615 0.00170346 0)
(0.000561775 0.00171276 0)
(0.000566557 0.00172436 0)
(0.000571528 0.00173742 0)
(0.000654827 0.00188543 0)
(0.000630376 0.0018887 0)
(0.000616848 0.0018899 0)
(0.000597825 0.00189558 0)
(0.00058629 0.00190119 0)
(0.000583821 0.00190461 0)
(0.000576427 0.00191141 0)
(0.00057538 0.00191901 0)
(0.000578938 0.00192644 0)
(0.000579873 0.0019363 0)
(0.000584772 0.00194706 0)
(0.000589219 0.00195915 0)
(0.000593429 0.00197284 0)
(0.000598035 0.00198733 0)
(0.000686299 0.0020958 0)
(0.000661883 0.00210434 0)
(0.000649339 0.00211061 0)
(0.000629062 0.00212158 0)
(0.00061652 0.00213237 0)
(0.000614199 0.00214062 0)
(0.000606031 0.00215189 0)
(0.000604164 0.00216376 0)
(0.000607195 0.002175 0)
(0.000607389 0.00218784 0)
(0.000611822 0.00220148 0)
(0.000615632 0.00221618 0)
(0.000619275 0.00223167 0)
(0.000623542 0.00224737 0)
(0.000717507 0.00231879 0)
(0.000692505 0.00233278 0)
(0.000680831 0.00234404 0)
(0.000659595 0.00235978 0)
(0.000645735 0.00237557 0)
(0.00064322 0.00238887 0)
(0.000634548 0.0024043 0)
(0.000632079 0.00242003 0)
(0.000634528 0.00243489 0)
(0.000634001 0.00245119 0)
(0.000637905 0.0024671 0)
(0.000641153 0.00248351 0)
(0.0006443 0.00250046 0)
(0.000648255 0.00251718 0)
(0.000748485 0.00255396 0)
(0.000722271 0.00257357 0)
(0.00071109 0.00258996 0)
(0.000689301 0.00261087 0)
(0.000674328 0.00263126 0)
(0.000671241 0.00264884 0)
(0.000661892 0.00266819 0)
(0.000659106 0.00268743 0)
(0.000661131 0.00270552 0)
(0.000659803 0.00272458 0)
(0.000663147 0.00274266 0)
(0.000665877 0.00276072 0)
(0.000668617 0.0027789 0)
(0.00067232 0.00279648 0)
(0.000779132 0.00280093 0)
(0.000751394 0.00282617 0)
(0.000740182 0.00284775 0)
(0.000717813 0.00287329 0)
(0.000702166 0.00289808 0)
(0.000698613 0.00291989 0)
(0.000688352 0.00294302 0)
(0.000685175 0.00296554 0)
(0.000686962 0.00298647 0)
(0.000684943 0.00300791 0)
(0.000687766 0.00302796 0)
(0.000690003 0.00304753 0)
(0.000692374 0.00306678 0)
(0.000695869 0.00308507 0)
(0.000809346 0.00305939 0)
(0.000780194 0.00309007 0)
(0.000768499 0.00311675 0)
(0.000745263 0.00314678 0)
(0.000729168 0.00317582 0)
(0.000725408 0.00320164 0)
(0.00071425 0.00322833 0)
(0.000710527 0.00325392 0)
(0.000712006 0.00327747 0)
(0.000709395 0.00330105 0)
(0.000711826 0.00332285 0)
(0.000713655 0.00334375 0)
(0.000715693 0.00336393 0)
(0.000719011 0.00338282 0)
(0.000839049 0.0033291 0)
(0.000808793 0.00336495 0)
(0.000796403 0.00339636 0)
(0.000771816 0.00343089 0)
(0.00075527 0.00346436 0)
(0.000751502 0.00349391 0)
(0.000739607 0.00352387 0)
(0.000735341 0.00355231 0)
(0.000736424 0.00357828 0)
(0.000733229 0.00360381 0)
(0.000735371 0.00362719 0)
(0.000736891 0.00364925 0)
(0.000738654 0.00367025 0)
(0.000741832 0.00368965 0)
(0.0008682 0.00360984 0)
(0.000837012 0.00365078 0)
(0.000824105 0.00368751 0)
(0.000797979 0.00372636 0)
(0.000780669 0.00376346 0)
(0.00077683 0.00379647 0)
(0.000764303 0.00382945 0)
(0.000759597 0.00386051 0)
(0.00076034 0.00388871 0)
(0.000756615 0.00391603 0)
(0.000758533 0.00394085 0)
(0.000759804 0.00396396 0)
(0.000761335 0.00398566 0)
(0.000764404 0.00400549 0)
(0.000896898 0.00390126 0)
(0.000864692 0.00394714 0)
(0.000851361 0.0039886 0)
(0.000823867 0.00403175 0)
(0.000805654 0.00407264 0)
(0.000801595 0.00410903 0)
(0.000788412 0.00414488 0)
(0.00078331 0.00417838 0)
(0.000783801 0.00420864 0)
(0.000779641 0.00423761 0)
(0.0007814 0.00426375 0)
(0.000782464 0.00428782 0)
(0.000783795 0.00431015 0)
(0.000786779 0.00433035 0)
(0.000925268 0.00420296 0)
(0.000891874 0.00425341 0)
(0.000878079 0.00429947 0)
(0.000849395 0.00434714 0)
(0.000830339 0.00439171 0)
(0.000826037 0.00443134 0)
(0.000812141 0.00446994 0)
(0.000806614 0.00450575 0)
(0.000806893 0.00453793 0)
(0.000802362 0.00456846 0)
(0.000804003 0.00459585 0)
(0.00080489 0.00462081 0)
(0.000806057 0.0046437 0)
(0.000808983 0.00466423 0)
(0.000953206 0.00451483 0)
(0.000918622 0.00457068 0)
(0.00090431 0.0046212 0)
(0.000874452 0.0046725 0)
(0.000854667 0.00472053 0)
(0.000850158 0.00476324 0)
(0.00083552 0.00480448 0)
(0.000829576 0.00484248 0)
(0.000829674 0.00487643 0)
(0.000824793 0.00490843 0)
(0.000826332 0.00493708 0)
(0.000827066 0.00496291 0)
(0.000828109 0.00498633 0)
(0.000831021 0.00500714 0)
(0.000980544 0.00483641 0)
(0.000944758 0.00489721 0)
(0.000930015 0.00495227 0)
(0.000899024 0.00500748 0)
(0.000878551 0.00505891 0)
(0.000873811 0.00510463 0)
(0.000858447 0.00514843 0)
(0.000852151 0.00518851 0)
(0.000852093 0.00522382 0)
(0.000846863 0.00525735 0)
(0.000848347 0.0052875 0)
(0.000848967 0.00531413 0)
(0.000849934 0.00533802 0)
(0.000852873 0.0053591 0)
(0.00100746 0.0051671 0)
(0.000970428 0.00523285 0)
(0.000955279 0.00529277 0)
(0.000923131 0.00535187 0)
(0.000901931 0.00540666 0)
(0.000896939 0.00545535 0)
(0.000880911 0.00550171 0)
(0.000874342 0.00554402 0)
(0.000874222 0.00558168 0)
(0.000868641 0.00561637 0)
(0.000870039 0.00564715 0)
(0.000870583 0.00567444 0)
(0.000871519 0.00569878 0)
(0.00087451 0.0057201 0)
(0.0010342 0.00550812 0)
(0.000995841 0.00557874 0)
(0.000980134 0.00564266 0)
(0.000946756 0.00570549 0)
(0.000924795 0.00576358 0)
(0.00091959 0.00581522 0)
(0.000902964 0.00586412 0)
(0.000896137 0.00590864 0)
(0.000895905 0.00594813 0)
(0.000890011 0.00598411 0)
(0.000891376 0.0060158 0)
(0.000891896 0.00604377 0)
(0.000892834 0.00606855 0)
(0.000895882 0.00609011 0)
(0.00106034 0.00585781 0)
(0.00102081 0.00593342 0)
(0.00100455 0.00600155 0)
(0.000969903 0.00606808 0)
(0.000947173 0.00612946 0)
(0.000941788 0.00618402 0)
(0.000924578 0.00623543 0)
(0.000917463 0.00628207 0)
(0.000917099 0.0063233 0)
(0.000910931 0.00636064 0)
(0.000912311 0.00639334 0)
(0.000912853 0.00642202 0)
(0.000913815 0.00644727 0)
(0.000916921 0.00646908 0)
(0.00108619 0.00621701 0)
(0.00104539 0.00629684 0)
(0.00102855 0.00636914 0)
(0.000992582 0.00643937 0)
(0.000969068 0.00650403 0)
(0.000963487 0.0065615 0)
(0.000945663 0.00661539 0)
(0.000938236 0.00666412 0)
(0.000937744 0.00670711 0)
(0.000931344 0.00674586 0)
(0.000932782 0.00677964 0)
(0.00093337 0.00680909 0)
(0.000934366 0.00683482 0)
(0.000937538 0.0068569 0)
(0.00111156 0.00658403 0)
(0.00106953 0.00666851 0)
(0.00105204 0.00674507 0)
(0.00101474 0.00681906 0)
(0.000990428 0.00688701 0)
(0.000984617 0.00694741 0)
(0.000966148 0.00700377 0)
(0.000958403 0.0070546 0)
(0.000957807 0.00709938 0)
(0.000951207 0.00713961 0)
(0.000952717 0.00717453 0)
(0.00095335 0.0072048 0)
(0.000954383 0.00723105 0)
(0.000957633 0.0072534 0)
(0.0011362 0.00695883 0)
(0.00109297 0.00704812 0)
(0.00107486 0.00712905 0)
(0.00103626 0.00720685 0)
(0.00101118 0.00727813 0)
(0.00100511 0.00734146 0)
(0.000985991 0.0074003 0)
(0.000977956 0.00745319 0)
(0.000977287 0.00749982 0)
(0.000970497 0.00754168 0)
(0.000972056 0.00757782 0)
(0.000972714 0.00760894 0)
(0.000973769 0.00763573 0)
(0.000977097 0.00765839 0)
(0.00115993 0.00734118 0)
(0.00111555 0.00743537 0)
(0.00109688 0.00752076 0)
(0.00105705 0.00760242 0)
(0.00103121 0.0076771 0)
(0.00102486 0.00774343 0)
(0.00100511 0.00780476 0)
(0.00099681 0.00785936 0)
(0.000996096 0.00790804 0)
(0.000989134 0.00795188 0)
(0.000990719 0.00798925 0)
(0.000991376 0.00802124 0)
(0.000992429 0.00804861 0)
(0.000995821 0.00807158 0)
(0.00118267 0.00773078 0)
(0.00113716 0.00782996 0)
(0.00111797 0.00791987 0)
(0.00107692 0.00800547 0)
(0.00105032 0.00808361 0)
(0.00104371 0.00815305 0)
(0.00102338 0.00821713 0)
(0.0010149 0.00827463 0)
(0.00101415 0.00832507 0)
(0.00100697 0.00836999 0)
(0.00100857 0.00840851 0)
(0.00100922 0.00844138 0)
(0.00101025 0.00846934 0)
(0.0010137 0.00849263 0)
(0.0012044 0.00812728 0)
(0.00115772 0.00823152 0)
(0.00113797 0.00832604 0)
(0.00109573 0.00841563 0)
(0.00106841 0.0084973 0)
(0.0010616 0.00856991 0)
(0.00104074 0.00863676 0)
(0.00103209 0.00869668 0)
(0.0010313 0.00874906 0)
(0.00102391 0.00879546 0)
(0.00102549 0.00883518 0)
(0.00102612 0.00886896 0)
(0.00102714 0.00889753 0)
(0.00103061 0.00892115 0)
(0.00122515 0.00853031 0)
(0.00117724 0.00863967 0)
(0.00115691 0.00873887 0)
(0.0011135 0.0088325 0)
(0.00108553 0.00891772 0)
(0.00107855 0.00899349 0)
(0.00105715 0.00906299 0)
(0.00104828 0.00912529 0)
(0.00104746 0.0091798 0)
(0.00103987 0.00922783 0)
(0.00104141 0.00926881 0)
(0.00104197 0.00930353 0)
(0.00104296 0.00933272 0)
(0.00104647 0.00935667 0)
(0.00124512 0.00893944 0)
(0.00119594 0.00905399 0)
(0.00117495 0.00915792 0)
(0.00113035 0.00925563 0)
(0.0011017 0.00934443 0)
(0.00109449 0.00942335 0)
(0.00107251 0.00949509 0)
(0.00106337 0.00955995 0)
(0.0010625 0.00961698 0)
(0.00105473 0.00966667 0)
(0.00105621 0.00970892 0)
(0.00105668 0.00974459 0)
(0.00105764 0.0097744 0)
(0.00106115 0.00979867 0)
(0.00126451 0.00935422 0)
(0.00121405 0.00947401 0)
(0.0011923 0.00958272 0)
(0.00114638 0.00968456 0)
(0.00111694 0.00977702 0)
(0.00110943 0.00985932 0)
(0.00108686 0.00993451 0)
(0.00107737 0.0100017 0)
(0.00107636 0.0100603 0)
(0.00106837 0.0101115 0)
(0.00106981 0.010155 0)
(0.00107018 0.0101916 0)
(0.00107107 0.010222 0)
(0.00107458 0.0102466 0)
(0.00128329 0.00977417 0)
(0.00123156 0.00989924 0)
(0.00120896 0.0100128 0)
(0.00116161 0.0101188 0)
(0.00113129 0.0102149 0)
(0.00112338 0.0103005 0)
(0.00110009 0.0103787 0)
(0.00109024 0.0104484 0)
(0.00108904 0.0105089 0)
(0.00108077 0.0105616 0)
(0.00108214 0.0106064 0)
(0.0010824 0.0106439 0)
(0.00108319 0.0106749 0)
(0.00108668 0.0106998 0)
(0.00130104 0.0101987 0)
(0.00124811 0.0103291 0)
(0.0012247 0.0104475 0)
(0.00117593 0.0105577 0)
(0.00114468 0.0106574 0)
(0.00113627 0.0107459 0)
(0.00111213 0.0108272 0)
(0.00110193 0.0108998 0)
(0.0011005 0.0109623 0)
(0.00109189 0.0110166 0)
(0.00109316 0.0110625 0)
(0.00109329 0.0111009 0)
(0.00109395 0.0111325 0)
(0.0010974 0.0111577 0)
(0.00131733 0.0106274 0)
(0.00126333 0.0107632 0)
(0.00123925 0.0108865 0)
(0.00118914 0.0110008 0)
(0.00115697 0.0111043 0)
(0.00114806 0.0111969 0)
(0.00112301 0.0112812 0)
(0.00111237 0.0113556 0)
(0.00111065 0.0114199 0)
(0.00110169 0.0114757 0)
(0.00110283 0.0115228 0)
(0.0011028 0.011562 0)
(0.00110331 0.0115941 0)
(0.00110669 0.0116195 0)
(0.00133217 0.0110595 0)
(0.00127716 0.0112007 0)
(0.0012525 0.0113289 0)
(0.00120114 0.0114474 0)
(0.00116808 0.0115543 0)
(0.0011586 0.0116509 0)
(0.00113271 0.0117384 0)
(0.00112153 0.011815 0)
(0.00111949 0.0118811 0)
(0.00111015 0.0119383 0)
(0.00111112 0.0119865 0)
(0.0011109 0.0120265 0)
(0.00111124 0.012059 0)
(0.00111455 0.0120846 0)
(0.00134578 0.0114946 0)
(0.00128972 0.0116412 0)
(0.00126443 0.0117744 0)
(0.00121187 0.0118968 0)
(0.0011779 0.0120086 0)
(0.00116788 0.0121091 0)
(0.00114114 0.0121988 0)
(0.00112942 0.0122773 0)
(0.00112701 0.0123452 0)
(0.00111724 0.0124037 0)
(0.00111799 0.0124529 0)
(0.00111757 0.0124936 0)
(0.00111775 0.0125266 0)
(0.00112095 0.0125522 0)
(0.00135815 0.011932 0)
(0.00130101 0.0120842 0)
(0.00127505 0.0122222 0)
(0.00122116 0.0123502 0)
(0.00118637 0.0124665 0)
(0.00117588 0.0125696 0)
(0.00114832 0.0126615 0)
(0.00113606 0.012742 0)
(0.00113324 0.0128116 0)
(0.00112298 0.0128713 0)
(0.00112348 0.0129214 0)
(0.00112284 0.0129628 0)
(0.00112283 0.012996 0)
(0.00112592 0.0130217 0)
(0.00136913 0.0123709 0)
(0.00131092 0.012529 0)
(0.00128431 0.0126736 0)
(0.0012291 0.0128066 0)
(0.00119358 0.0129259 0)
(0.00118266 0.0130318 0)
(0.00115431 0.013126 0)
(0.0011415 0.0132084 0)
(0.00113823 0.0132795 0)
(0.00112746 0.0133404 0)
(0.00112768 0.0133914 0)
(0.00112677 0.0134332 0)
(0.00112654 0.0134667 0)
(0.0011295 0.0134924 0)
(0.00137882 0.0128141 0)
(0.0013195 0.0129781 0)
(0.00129219 0.0131275 0)
(0.00123584 0.0132638 0)
(0.0011996 0.0133863 0)
(0.00118827 0.0134951 0)
(0.00115917 0.0135916 0)
(0.00114582 0.0136759 0)
(0.0011421 0.0137485 0)
(0.00113078 0.0138104 0)
(0.00113065 0.0138622 0)
(0.00112941 0.0139044 0)
(0.00112892 0.013938 0)
(0.00113175 0.0139636 0)
(0.00138692 0.013257 0)
(0.00132664 0.0134268 0)
(0.00129876 0.013581 0)
(0.00124134 0.0137212 0)
(0.00120447 0.0138471 0)
(0.00119282 0.0139588 0)
(0.00116302 0.0140576 0)
(0.00114916 0.0141437 0)
(0.00114497 0.0142178 0)
(0.00113305 0.0142808 0)
(0.00113251 0.0143332 0)
(0.00113087 0.0143757 0)
(0.0011301 0.0144094 0)
(0.00113277 0.0144347 0)
(0.00139364 0.0136992 0)
(0.00133256 0.0138747 0)
(0.00130424 0.014034 0)
(0.0012459 0.0141783 0)
(0.00120854 0.0143076 0)
(0.00119661 0.0144223 0)
(0.00116612 0.0145235 0)
(0.0011517 0.0146115 0)
(0.00114695 0.014687 0)
(0.00113437 0.0147509 0)
(0.00113334 0.0148038 0)
(0.00113128 0.0148466 0)
(0.00113016 0.0148801 0)
(0.00113264 0.0149052 0)
(0.00139921 0.0141401 0)
(0.00133763 0.0143215 0)
(0.00130911 0.014486 0)
(0.00125005 0.0146345 0)
(0.00121226 0.0147673 0)
(0.00119999 0.0148852 0)
(0.00116866 0.0149887 0)
(0.00115354 0.0150786 0)
(0.00114813 0.0151555 0)
(0.00113482 0.0152202 0)
(0.00113326 0.0152736 0)
(0.00113071 0.0153165 0)
(0.00112923 0.0153499 0)
(0.0011315 0.0153745 0)
(0.00140423 0.0145792 0)
(0.00134251 0.0147665 0)
(0.00131405 0.0149363 0)
(0.00125432 0.0150891 0)
(0.00121596 0.0152257 0)
(0.00120309 0.0153467 0)
(0.00117069 0.0154527 0)
(0.00115468 0.0155445 0)
(0.0011485 0.0156228 0)
(0.00113441 0.0156884 0)
(0.0011323 0.0157422 0)
(0.00112926 0.0157851 0)
(0.0011274 0.0158181 0)
(0.00112947 0.0158423 0)
(0.00140983 0.0150156 0)
(0.00134825 0.015209 0)
(0.00131979 0.0153843 0)
(0.00125909 0.0155416 0)
(0.00121969 0.0156821 0)
(0.00120576 0.0158065 0)
(0.001172 0.0159151 0)
(0.00115497 0.0160088 0)
(0.00114799 0.0160886 0)
(0.00113315 0.016155 0)
(0.00113052 0.0162091 0)
(0.00112702 0.016252 0)
(0.00112481 0.0162846 0)
(0.00112668 0.0163082 0)
(0.00141723 0.0154486 0)
(0.00135562 0.0156483 0)
(0.00132651 0.0158292 0)
(0.001264 0.0159913 0)
(0.00122288 0.0161359 0)
(0.00120754 0.0162638 0)
(0.00117238 0.0163752 0)
(0.00115444 0.0164711 0)
(0.00114675 0.0165524 0)
(0.00113121 0.0166196 0)
(0.00112808 0.0166741 0)
(0.00112414 0.0167169 0)
(0.0011216 0.016749 0)
(0.00112328 0.016772 0)
(0.00142688 0.0158773 0)
(0.00136419 0.0160835 0)
(0.00133318 0.0162704 0)
(0.00126801 0.0164375 0)
(0.00122494 0.0165865 0)
(0.00120843 0.0167183 0)
(0.00117219 0.0168327 0)
(0.00115347 0.0169309 0)
(0.00114506 0.0170139 0)
(0.00112876 0.0170821 0)
(0.00112511 0.017137 0)
(0.00112075 0.0171796 0)
(0.00111791 0.0172112 0)
(0.00111943 0.0172335 0)
(0.00143781 0.0163007 0)
(0.00137239 0.0165137 0)
(0.00133854 0.0167069 0)
(0.00127085 0.0168795 0)
(0.00122655 0.0170333 0)
(0.00120933 0.0171694 0)
(0.00117198 0.0172871 0)
(0.0011522 0.0173879 0)
(0.00114286 0.0174728 0)
(0.00112578 0.0175422 0)
(0.00112167 0.0175975 0)
(0.00111696 0.01764 0)
(0.00111387 0.0176711 0)
(0.00111526 0.0176926 0)
(0.00144822 0.0167177 0)
(0.00137916 0.016938 0)
(0.00134311 0.017138 0)
(0.00127412 0.0173166 0)
(0.00122899 0.0174757 0)
(0.0012105 0.0176164 0)
(0.00117134 0.0177379 0)
(0.00115025 0.0178417 0)
(0.00114011 0.0179289 0)
(0.00112246 0.0179996 0)
(0.001118 0.0180556 0)
(0.00111298 0.018098 0)
(0.00110965 0.0181286 0)
(0.0011109 0.0181493 0)
(0.0014572 0.0171272 0)
(0.00138574 0.0173553 0)
(0.00134921 0.0175628 0)
(0.00127902 0.0177478 0)
(0.00123166 0.0179126 0)
(0.0012108 0.0180585 0)
(0.00116987 0.0181844 0)
(0.00114805 0.0182918 0)
(0.00113745 0.0183817 0)
(0.00111921 0.0184542 0)
(0.00111428 0.0185111 0)
(0.00110889 0.0185537 0)
(0.00110533 0.0185838 0)
(0.00110648 0.0186038 0)
(0.00146646 0.0175281 0)
(0.00139484 0.0177646 0)
(0.00135755 0.0179799 0)
(0.00128385 0.0181718 0)
(0.00123302 0.0183431 0)
(0.00121051 0.018495 0)
(0.00116893 0.018626 0)
(0.00114657 0.0187377 0)
(0.001135 0.018831 0)
(0.00111573 0.0189058 0)
(0.00111031 0.0189641 0)
(0.00110467 0.0190071 0)
(0.00110097 0.0190369 0)
(0.00110207 0.0190561 0)
(0.00147894 0.017919 0)
(0.00140672 0.0181643 0)
(0.00136553 0.0183879 0)
(0.00128704 0.0185874 0)
(0.00123437 0.0187661 0)
(0.0012117 0.0189249 0)
(0.0011691 0.0190619 0)
(0.00114486 0.0191786 0)
(0.00113156 0.0192761 0)
(0.00111173 0.019354 0)
(0.00110629 0.0194143 0)
(0.00110051 0.0194583 0)
(0.00109667 0.019488 0)
(0.00109775 0.0195065 0)
(0.00149501 0.0182981 0)
(0.00141848 0.0185525 0)
(0.00137167 0.0187851 0)
(0.00129063 0.0189932 0)
(0.00123787 0.0191802 0)
(0.00121405 0.0193468 0)
(0.00116831 0.0194907 0)
(0.00114134 0.0196135 0)
(0.00112788 0.0197164 0)
(0.00110841 0.0197985 0)
(0.00110258 0.0198617 0)
(0.00109637 0.0199072 0)
(0.00109242 0.0199373 0)
(0.00109355 0.0199553 0)
(0.00151203 0.0186633 0)
(0.00142844 0.0189272 0)
(0.00137804 0.0191697 0)
(0.00129669 0.0193874 0)
(0.00124284 0.0195835 0)
(0.00121515 0.0197587 0)
(0.00116509 0.0199107 0)
(0.00113835 0.0200413 0)
(0.00112599 0.020151 0)
(0.00110506 0.0202386 0)
(0.00109813 0.0203057 0)
(0.00109184 0.0203538 0)
(0.00108819 0.0203848 0)
(0.00108943 0.0204026 0)
(0.0015279 0.0190123 0)
(0.00143798 0.0192865 0)
(0.00138695 0.0195397 0)
(0.00130525 0.0197676 0)
(0.00124693 0.0199734 0)
(0.00121304 0.0201585 0)
(0.00116302 0.0203203 0)
(0.00113832 0.0204602 0)
(0.00112279 0.0205783 0)
(0.0010996 0.0206729 0)
(0.00109302 0.0207459 0)
(0.00108755 0.0207979 0)
(0.00108408 0.0208308 0)
(0.0010853 0.0208488 0)
(0.00154265 0.0193429 0)
(0.00144971 0.019628 0)
(0.00139983 0.0198923 0)
(0.00131388 0.0201307 0)
(0.00124695 0.0203471 0)
(0.00121226 0.0205436 0)
(0.00116515 0.0207167 0)
(0.00113553 0.0208675 0)
(0.00111641 0.0209957 0)
(0.00109417 0.0210999 0)
(0.00108881 0.021181 0)
(0.00108338 0.0212388 0)
(0.00107948 0.0212751 0)
(0.00108104 0.021294 0)
(0.00155842 0.0196526 0)
(0.00146628 0.0199489 0)
(0.00141452 0.0202244 0)
(0.00131857 0.0204735 0)
(0.00124812 0.0207015 0)
(0.0012165 0.0209106 0)
(0.00116398 0.0210962 0)
(0.00112935 0.0212591 0)
(0.00111099 0.0214002 0)
(0.00108948 0.0215168 0)
(0.0010838 0.0216087 0)
(0.00107722 0.0216752 0)
(0.00107416 0.0217171 0)
(0.00107663 0.0217383 0)
(0.00157817 0.0199389 0)
(0.00148675 0.0202461 0)
(0.00142745 0.0205324 0)
(0.00132379 0.0207923 0)
(0.00125353 0.0210327 0)
(0.00121863 0.0212549 0)
(0.00116057 0.0214535 0)
(0.00112391 0.0216308 0)
(0.00110514 0.0217871 0)
(0.00108318 0.0219188 0)
(0.0010753 0.0220253 0)
(0.00106983 0.0221046 0)
(0.00106878 0.0221558 0)
(0.00107168 0.0221814 0)
(0.00160281 0.0201988 0)
(0.00150927 0.0205163 0)
(0.00144071 0.0208126 0)
(0.00133099 0.0210836 0)
(0.00125977 0.0213362 0)
(0.00122129 0.0215712 0)
(0.00115595 0.0217835 0)
(0.00111716 0.0219762 0)
(0.00109893 0.0221494 0)
(0.00107266 0.022299 0)
(0.00106459 0.0224242 0)
(0.00106181 0.022522 0)
(0.00106163 0.0225883 0)
(0.00106554 0.0226226 0)
(0.00163249 0.0204295 0)