/*--------------------------------*- C++ -*----------------------------------*\
| =========                 |                                                 |
| \\      /  F ield         | OpenFOAM Extend Project: Open source CFD        |
|  \\    /   O peration     | Version:  1.6-ext                               |
|   \\  /    A nd           | Web:      www.extend-project.de                 |
|    \\/     M anipulation  |                                                 |
\*---------------------------------------------------------------------------*/
FoamFile
{
    version     2.0;
    format      ascii;
    class       volScalarField;
    location    "0.75";
    object      p;
}
// * * * * * * * * * * * * * * * * * * * * * * * * * * * * * * * * * * * * * //

dimensions      [0 2 -2 0 0 0 0];

internalField   nonuniform List<scalar> 
20940
(
-0.137803
-0.180795
-0.225929
-0.273467
-0.322853
-0.374153
-0.426863
-0.480506
-0.534227
-0.586918
-0.637231
-0.68378
-0.725385
-0.761317
-0.791424
-0.816108
-0.836163
-0.852572
-0.866242
-0.877936
-0.889162
-0.901079
-0.165854
-0.20766
-0.251781
-0.297694
-0.345169
-0.394039
-0.443771
-0.493762
-0.543075
-0.590596
-0.635103
-0.675495
-0.711
-0.741323
-0.766668
-0.787625
-0.805001
-0.819645
-0.832254
-0.843356
-0.854207
-0.865772
-0.190297
-0.230696
-0.273515
-0.317553
-0.362852
-0.409008
-0.455461
-0.501488
-0.54613
-0.588336
-0.627097
-0.661649
-0.691619
-0.717073
-0.738446
-0.756403
-0.771674
-0.784937
-0.79668
-0.807228
-0.817604
-0.828602
-0.21339
-0.252176
-0.293427
-0.335325
-0.378151
-0.421259
-0.464073
-0.505787
-0.545482
-0.58226
-0.615394
-0.644482
-0.669503
-0.690781
-0.70887
-0.724404
-0.737986
-0.750109
-0.761081
-0.771064
-0.78089
-0.791228
-0.234807
-0.271883
-0.311408
-0.351006
-0.391158
-0.430984
-0.46991
-0.507101
-0.54176
-0.573216
-0.601066
-0.625247
-0.646009
-0.663825
-0.679261
-0.692859
-0.705068
-0.716214
-0.726456
-0.735837
-0.74504
-0.754643
-0.254826
-0.290134
-0.327798
-0.364947
-0.402229
-0.438553
-0.473394
-0.505961
-0.535658
-0.562093
-0.585183
-0.605135
-0.622367
-0.637397
-0.650728
-0.662774
-0.673836
-0.684101
-0.693618
-0.70235
-0.71086
-0.719663
-0.273602
-0.307087
-0.342772
-0.377345
-0.411595
-0.444264
-0.474935
-0.502934
-0.527928
-0.549816
-0.568783
-0.585218
-0.599608
-0.61243
-0.624085
-0.634857
-0.644917
-0.654347
-0.663124
-0.67116
-0.678923
-0.68688
-0.291402
-0.323109
-0.356747
-0.388634
-0.419703
-0.448598
-0.475093
-0.498699
-0.519376
-0.537278
-0.552785
-0.566367
-0.578496
-0.589565
-0.599857
-0.609539
-0.618684
-0.627298
-0.635315
-0.64262
-0.649601
-0.656688
-0.308175
-0.338046
-0.369513
-0.398623
-0.426438
-0.451588
-0.474085
-0.493666
-0.51056
-0.525115
-0.537815
-0.549134
-0.559477
-0.569135
-0.578285
-0.587001
-0.595284
-0.603094
-0.610339
-0.616897
-0.623083
-0.6293
-0.324247
-0.352402
-0.381667
-0.407925
-0.432417
-0.453873
-0.472591
-0.488544
-0.502181
-0.513963
-0.524396
-0.533905
-0.542802
-0.551281
-0.55943
-0.567255
-0.574711
-0.581728
-0.588205
-0.594018
-0.599422
-0.604789
-0.339079
-0.365341
-0.392231
-0.415661
-0.436972
-0.455064
-0.470483
-0.483399
-0.4944
-0.50399
-0.512645
-0.520716
-0.528431
-0.535903
-0.543156
-0.550152
-0.556818
-0.563067
-0.568799
-0.573891
-0.578547
-0.583108
-0.353404
-0.377986
-0.402583
-0.423196
-0.441387
-0.456324
-0.468774
-0.479074
-0.487869
-0.495649
-0.502831
-0.509684
-0.516362
-0.522916
-0.529328
-0.535531
-0.541434
-0.546944
-0.551961
-0.556371
-0.560328
-0.564143
-0.36522
-0.387908
-0.40996
-0.428149
-0.443736
-0.456238
-0.46646
-0.474844
-0.482028
-0.488469
-0.49452
-0.500393
-0.506192
-0.511934
-0.517577
-0.523042
-0.528232
-0.533052
-0.537407
-0.541191
-0.544518
-0.547664
-0.377773
-0.398679
-0.418498
-0.434265
-0.447312
-0.457512
-0.465683
-0.472345
-0.478086
-0.483313
-0.488315
-0.493252
-0.498188
-0.503117
-0.507983
-0.512702
-0.517178
-0.521314
-0.525024
-0.528209
-0.530952
-0.533502
-0.382864
-0.403668
-0.420703
-0.435161
-0.446692
-0.455769
-0.462938
-0.468756
-0.473728
-0.478232
-0.482526
-0.486761
-0.490999
-0.495241
-0.49944
-0.503521
-0.507392
-0.510963
-0.514146
-0.516852
-0.519128
-0.521188
-0.398133
-0.415724
-0.429857
-0.441895
-0.451138
-0.458291
-0.463849
-0.468353
-0.472238
-0.475811
-0.47927
-0.482722
-0.486204
-0.489704
-0.493173
-0.496541
-0.499728
-0.502651
-0.505239
-0.507416
-0.509208
-0.510787
-0.418888
-0.432529
-0.44187
-0.450067
-0.456132
-0.461045
-0.465032
-0.468473
-0.471589
-0.474539
-0.477417
-0.48027
-0.483107
-0.485911
-0.488643
-0.491251
-0.493675
-0.495858
-0.497751
-0.499311
-0.500567
-0.501653
-0.428534
-0.44022
-0.446873
-0.453387
-0.45797
-0.461893
-0.465088
-0.467903
-0.470452
-0.472855
-0.475173
-0.477443
-0.479675
-0.481855
-0.483958
-0.485944
-0.487769
-0.489391
-0.490774
-0.491889
-0.492759
-0.493474
-0.435515
-0.445556
-0.45019
-0.455463
-0.45894
-0.462114
-0.464694
-0.467005
-0.469089
-0.471035
-0.472885
-0.474665
-0.476385
-0.478039
-0.479608
-0.481065
-0.482379
-0.483521
-0.484466
-0.4852
-0.485734
-0.486131
-0.439397
-0.447978
-0.451513
-0.455975
-0.458821
-0.461515
-0.463685
-0.465622
-0.46734
-0.468912
-0.470371
-0.471744
-0.47304
-0.474261
-0.475393
-0.476421
-0.47732
-0.478071
-0.478658
-0.479072
-0.479318
-0.479429
-0.44132
-0.448561
-0.45162
-0.455456
-0.457934
-0.460273
-0.462151
-0.463803
-0.465241
-0.466523
-0.46768
-0.468735
-0.469702
-0.470583
-0.471371
-0.472055
-0.47262
-0.473049
-0.473333
-0.473471
-0.473449
-0.473285
-0.441607
-0.447701
-0.450655
-0.454035
-0.456334
-0.458442
-0.460141
-0.461606
-0.462856
-0.463939
-0.464884
-0.465713
-0.466439
-0.467067
-0.467595
-0.468013
-0.468311
-0.468477
-0.468506
-0.468399
-0.468128
-0.467688
-0.440643
-0.445875
-0.448893
-0.451984
-0.454228
-0.456217
-0.457834
-0.459204
-0.460353
-0.461322
-0.462138
-0.462822
-0.463387
-0.463839
-0.464176
-0.464394
-0.464484
-0.464437
-0.46425
-0.463928
-0.463422
-0.46271
-0.438819
-0.443488
-0.446633
-0.44959
-0.451871
-0.453842
-0.455461
-0.456818
-0.457943
-0.458872
-0.45963
-0.460237
-0.460706
-0.461044
-0.46125
-0.461323
-0.461254
-0.461038
-0.460674
-0.460169
-0.459452
-0.458486
-0.436565
-0.440935
-0.44423
-0.44718
-0.44956
-0.451593
-0.453279
-0.454686
-0.455846
-0.456791
-0.457546
-0.458129
-0.458553
-0.458826
-0.458949
-0.458923
-0.458741
-0.4584
-0.4579
-0.45725
-0.45636
-0.455179
-0.434322
-0.438597
-0.442051
-0.44508
-0.447598
-0.449743
-0.451538
-0.453035
-0.454269
-0.455268
-0.456056
-0.456652
-0.457068
-0.457313
-0.457392
-0.457305
-0.457052
-0.45663
-0.456042
-0.455297
-0.454291
-0.452961
-0.432381
-0.436698
-0.440312
-0.443468
-0.446141
-0.448423
-0.450347
-0.451958
-0.453288
-0.454365
-0.455213
-0.455847
-0.456283
-0.456531
-0.456596
-0.456485
-0.4562
-0.455742
-0.455119
-0.454343
-0.453303
-0.451924
-0.43109
-0.435526
-0.439293
-0.442593
-0.445417
-0.44784
-0.449896
-0.451626
-0.453062
-0.45423
-0.455153
-0.455847
-0.456324
-0.456598
-0.456676
-0.456568
-0.456283
-0.455831
-0.455225
-0.454484
-0.453507
-0.452219
-0.430266
-0.434836
-0.438721
-0.442143
-0.445089
-0.447629
-0.449799
-0.451636
-0.453171
-0.45443
-0.455431
-0.456191
-0.456722
-0.457032
-0.457136
-0.457045
-0.456778
-0.456356
-0.455808
-0.455168
-0.454378
-0.453373
-0.430455
-0.435161
-0.439193
-0.442757
-0.445849
-0.44853
-0.450842
-0.452823
-0.454507
-0.455917
-0.457073
-0.457983
-0.458653
-0.459083
-0.459276
-0.459236
-0.458976
-0.458523
-0.457925
-0.457255
-0.456577
-0.455967
1.2251
1.27596
1.32673
1.37736
1.42739
1.47642
1.52406
1.56992
1.6136
1.65472
1.69293
1.72788
1.75928
1.78691
1.81063
1.83051
1.84688
1.86046
1.8722
1.88334
1.89673
1.9143
1.21694
1.26748
1.31763
1.3676
1.41695
1.46526
1.51215
1.55722
1.60009
1.64039
1.67774
1.71184
1.74238
1.76914
1.79201
1.81108
1.8267
1.83962
1.85085
1.86165
1.87487
1.89237
1.19678
1.24662
1.29547
1.34419
1.39224
1.4392
1.48469
1.52832
1.56971
1.60849
1.64429
1.67681
1.70574
1.73088
1.75214
1.76964
1.78379
1.79543
1.80565
1.81575
1.82861
1.84597
1.16782
1.2166
1.26349
1.31028
1.35631
1.40116
1.44447
1.48584
1.52491
1.5613
1.59468
1.62471
1.65114
1.67375
1.6925
1.70755
1.71943
1.72908
1.73772
1.74674
1.759
1.77611
1.12939
1.17676
1.22109
1.26536
1.30878
1.35089
1.39137
1.42982
1.46587
1.49917
1.52937
1.55617
1.57931
1.5986
1.61404
1.62587
1.63474
1.64174
1.64826
1.65582
1.66726
1.684
1.08322
1.12882
1.17
1.2112
1.2514
1.29016
1.32716
1.36201
1.39435
1.42384
1.45014
1.47295
1.49203
1.50722
1.51855
1.52639
1.5315
1.53519
1.53905
1.54476
1.55513
1.57135
1.03027
1.07375
1.11128
1.14894
1.18542
1.2203
1.25327
1.28396
1.312
1.33707
1.35882
1.37698
1.39131
1.40168
1.40818
1.41128
1.41193
1.41166
1.41232
1.41576
1.42479
1.44031
0.972258
1.01329
1.04674
1.08044
1.11276
1.14328
1.17173
1.19772
1.22092
1.24098
1.25759
1.27047
1.27939
1.28426
1.28524
1.2829
1.2784
1.27352
1.27043
1.27119
1.27856
1.29316
0.910715
0.948956
0.978015
1.00745
1.03527
1.0611
1.08465
1.10557
1.1235
1.13812
1.14911
1.1562
1.15917
1.15795
1.15278
1.14434
1.13401
1.12389
1.11647
1.11407
1.11944
1.13283
0.847604
0.882765
0.907203
0.932117
0.955142
0.975942
0.994261
1.00972
1.02198
1.03072
1.03563
1.03644
1.03294
1.02509
1.01318
0.998028
0.981252
0.965281
0.952977
0.946976
0.949971
0.961836
0.78431
0.816054
0.835811
0.856135
0.874287
0.889984
0.902966
0.912849
0.919291
0.921965
0.920559
0.9148
0.904485
0.889588
0.870445
0.848026
0.824185
0.801719
0.783923
0.773778
0.773951
0.783895
0.723037
0.751075
0.766098
0.781668
0.794757
0.805138
0.812541
0.816576
0.816903
0.813194
0.805138
0.792462
0.774968
0.752643
0.725877
0.695769
0.664424
0.635015
0.611295
0.596623
0.593615
0.601221
0.664146
0.688135
0.698848
0.709934
0.718256
0.723621
0.725735
0.724194
0.718642
0.708735
0.694148
0.674588
0.649841
0.619889
0.585154
0.546859
0.507377
0.470315
0.439965
0.420152
0.413454
0.41826
0.610913
0.629875
0.636198
0.642565
0.645903
0.646003
0.64254
0.635109
0.623349
0.606913
0.585474
0.558746
0.526523
0.488807
0.44607
0.399658
0.352193
0.307669
0.270851
0.245962
0.23544
0.236968
0.561126
0.574987
0.578324
0.580631
0.579822
0.575545
0.567407
0.55498
0.537866
0.515676
0.488042
0.454626
0.41517
0.369626
0.318454
0.263086
0.206435
0.153056
0.108487
0.0776596
0.0630368
0.0613452
0.523386
0.525505
0.525858
0.523865
0.518097
0.508547
0.494755
0.476316
0.45284
0.423939
0.389252
0.348459
0.301345
0.24796
0.188947
0.126034
0.0625125
0.00331378
-0.0458011
-0.0799206
-0.0971236
-0.101469
0.483582
0.47605
0.471447
0.462244
0.44915
0.431939
0.410146
0.383456
0.351531
0.314059
0.270763
0.221446
0.166085
0.10505
0.0394472
-0.0284622
-0.0950033
-0.155317
-0.204308
-0.238129
-0.25613
-0.263083
0.43624
0.421797
0.412406
0.396715
0.377408
0.353593
0.324966
0.291247
0.252142
0.207405
0.156841
0.100368
0.038147
-0.0291732
-0.100105
-0.171979
-0.240851
-0.301949
-0.350709
-0.384152
-0.40277
-0.411966
0.386094
0.365868
0.351261
0.329314
0.304016
0.273888
0.238875
0.198696
0.153109
0.101924
0.0450224
-0.0175624
-0.0854776
-0.157782
-0.232614
-0.306944
-0.376668
-0.437233
-0.484717
-0.517046
-0.535721
-0.546475
0.333965
0.308659
0.288793
0.261084
0.230184
0.194228
0.153394
0.107382
0.0560182
-0.000825612
-0.0631783
-0.13086
-0.20329
-0.279205
-0.356376
-0.431497
-0.500461
-0.559121
-0.604329
-0.634926
-0.653246
-0.665077
0.280936
0.251201
0.226275
0.193406
0.157428
0.116299
0.0703683
0.0193283
-0.0369273
-0.0984604
-0.165195
-0.236785
-0.312396
-0.390441
-0.468376
-0.542739
-0.609582
-0.665313
-0.70761
-0.736151
-0.753891
-0.766465
0.228192
0.194639
0.165018
0.127637
0.0871827
0.0416016
-0.00864347
-0.063855
-0.124068
-0.189271
-0.259267
-0.333519
-0.41093
-0.48961
-0.566779
-0.638956
-0.702515
-0.754526
-0.793489
-0.819803
-0.836835
-0.849906
0.176548
0.139781
0.105961
0.0647676
0.0205199
-0.0287236
-0.082443
-0.140915
-0.204104
-0.271914
-0.344006
-0.419637
-0.497445
-0.575282
-0.650239
-0.718963
-0.778293
-0.826023
-0.861425
-0.885471
-0.901743
-0.915137
0.127001
0.0876158
0.050181
0.00588726
-0.0414326
-0.0935325
-0.149874
-0.210689
-0.275868
-0.345216
-0.418236
-0.493965
-0.570796
-0.646396
-0.717845
-0.782068
-0.836478
-0.879607
-0.911405
-0.93325
-0.94877
-0.962356
0.0798739
0.0384548
-0.00195445
-0.0486222
-0.0982585
-0.152388
-0.210478
-0.272701
-0.338869
-0.40867
-0.481432
-0.555981
-0.630503
-0.702568
-0.769384
-0.828286
-0.877325
-0.915739
-0.944025
-0.96381
-0.978615
-0.992289
0.0359509
-0.00693734
-0.04966
-0.098002
-0.149222
-0.204597
-0.263609
-0.326359
-0.392568
-0.46179
-0.533173
-0.605342
-0.676342
-0.743758
-0.805059
-0.858091
-0.901567
-0.935349
-0.960339
-0.978257
-0.992402
-1.00607
-0.0051349
-0.0489667
-0.0933467
-0.142681
-0.194758
-0.250601
-0.309715
-0.372111
-0.43741
-0.505018
-0.573905
-0.642536
-0.708898
-0.770715
-0.825838
-0.872692
-0.910623
-0.940003
-0.961983
-0.978241
-0.991768
-1.00532
-0.0426134
-0.0868852
-0.132291
-0.181995
-0.234273
-0.289899
-0.348391
-0.409657
-0.473204
-0.538282
-0.603697
-0.667814
-0.728662
-0.784225
-0.832831
-0.8735
-0.90614
-0.931491
-0.95081
-0.965625
-0.978567
-0.991884
-0.077692
-0.121972
-0.167825
-0.21732
-0.269171
-0.323912
-0.381066
-0.440421
-0.501359
-0.562976
-0.623959
-0.682651
-0.737243
-0.786095
-0.828066
-0.862746
-0.890485
-0.912245
-0.929254
-0.942813
-0.955164
-0.968106
-0.108999
-0.152866
-0.198631
-0.247404
-0.298293
-0.35159
-0.406811
-0.463612
-0.521246
-0.578682
-0.634542
-0.687249
-0.735264
-0.777392
-0.813023
-0.842222
-0.865642
-0.884319
-0.899352
-0.911777
-0.923438
-0.935741
-0.0947834
-0.139122
-0.185478
-0.23492
-0.28657
-0.340689
-0.396782
-0.45447
-0.512972
-0.57121
-0.627762
-0.681016
-0.729418
-0.771774
-0.807497
-0.836679
-0.860002
-0.878528
-0.893376
-0.905599
-0.917035
-0.92908
-0.0632196
-0.107986
-0.154435
-0.204579
-0.257165
-0.312689
-0.370672
-0.430872
-0.492637
-0.555023
-0.616668
-0.675874
-0.730812
-0.779841
-0.821844
-0.856445
-0.884033
-0.905599
-0.922392
-0.935729
-0.947835
-0.960495
-0.0280968
-0.072865
-0.118877
-0.169215
-0.222203
-0.278575
-0.337853
-0.39992
-0.464255
-0.530067
-0.596115
-0.660717
-0.721873
-0.777562
-0.826134
-0.866653
-0.899072
-0.924173
-0.943237
-0.957808
-0.97049
-0.98351
0.00915499
-0.0351826
-0.0801874
-0.130143
-0.182911
-0.239468
-0.299329
-0.362483
-0.428528
-0.496836
-0.566327
-0.635418
-0.702058
-0.763956
-0.818983
-0.86561
-0.903242
-0.932302
-0.95398
-0.969966
-0.983224
-0.996468
0.0497426
0.0063427
-0.0370297
-0.0859877
-0.137886
-0.193949
-0.253675
-0.317146
-0.384066
-0.453958
-0.525925
-0.598542
-0.669805
-0.737276
-0.798433
-0.851171
-0.894268
-0.927657
-0.952288
-0.969904
-0.983772
-0.997136
0.0928861
0.0509495
0.00985748
-0.037429
-0.0877386
-0.142542
-0.201322
-0.264239
-0.331091
-0.40154
-0.474875
-0.54987
-0.624659
-0.696776
-0.763427
-0.821986
-0.87058
-0.908527
-0.936395
-0.955844
-0.970368
-0.983754
0.138969
0.0990592
0.0609025
0.0159786
-0.0320193
-0.0847889
-0.141809
-0.203303
-0.269151
-0.339137
-0.412731
-0.488922
-0.566046
-0.641721
-0.713014
-0.776878
-0.830797
-0.8734
-0.904723
-0.926198
-0.941434
-0.954756
0.187234
0.149932
0.115345
0.0734991
0.0285586
-0.0213637
-0.0757641
-0.134914
-0.19877
-0.267222
-0.339904
-0.416028
-0.494174
-0.572142
-0.646987
-0.715372
-0.774197
-0.821364
-0.856247
-0.879892
-0.895881
-0.909041
0.237403
0.203297
0.17286
0.134794
0.0936218
0.04734
-0.00360207
-0.0595052
-0.1204
-0.186264
-0.25688
-0.331672
-0.409489
-0.48838
-0.56552
-0.637419
-0.700504
-0.751944
-0.790363
-0.816254
-0.83301
-0.845887
0.288535
0.258218
0.232427
0.198827
0.162098
0.120233
0.0735763
0.0218154
-0.0351519
-0.0973813
-0.164781
-0.236973
-0.313075
-0.391438
-0.46946
-0.543651
-0.610093
-0.665288
-0.707041
-0.735155
-0.752634
-0.765063
0.339878
0.313946
0.293166
0.264671
0.232978
0.196243
0.15464
0.107865
0.0557444
-0.00184526
-0.0649223
-0.133283
-0.206305
-0.282664
-0.360066
-0.43516
-0.503844
-0.562046
-0.60675
-0.636934
-0.65502
-0.666766
0.39032
0.369404
0.353843
0.331045
0.304907
0.273947
0.238114
0.197118
0.150717
0.0987243
0.0410257
-0.0223267
-0.0909461
-0.163837
-0.239069
-0.313551
-0.383161
-0.443395
-0.490452
-0.52241
-0.540892
-0.551634
0.438833
0.423611
0.413238
0.396627
0.376428
0.351725
0.322217
0.287618
0.247633
0.202013
0.15057
0.0932325
0.0301876
-0.0378688
-0.109382
-0.18161
-0.250568
-0.311503
-0.359957
-0.393102
-0.411587
-0.420856
0.484657
0.476181
0.470575
0.460386
0.446347
0.428195
0.405465
0.377836
0.344966
0.30654
0.262283
0.212005
0.155703
0.0937825
0.0274136
-0.0410667
-0.107921
-0.168281
-0.217127
-0.250758
-0.268704
-0.275829
0.52339
0.524397
0.523737
0.520709
0.513926
0.503373
0.488573
0.469121
0.444619
0.414677
0.378932
0.337067
0.288878
0.234441
0.174453
0.110717
0.0466106
-0.0128923
-0.0620709
-0.0961435
-0.113392
-0.118018
0.559475
0.572025
0.574338
0.575626
0.57378
0.568469
0.559287
0.545801
0.527608
0.504316
0.475556
0.44099
0.400369
0.35367
0.301399
0.245062
0.187657
0.133794
0.0889896
0.0580694
0.0432971
0.0412335
0.607173
0.62476
0.630064
0.635406
0.637688
0.636736
0.632205
0.623685
0.610811
0.593234
0.570627
0.542705
0.50927
0.470347
0.42645
0.378993
0.330674
0.285537
0.248341
0.223225
0.212453
0.213541
0.658589
0.681243
0.690935
0.701001
0.70826
0.71256
0.713584
0.710927
0.70423
0.693146
0.677348
0.656547
0.630537
0.59932
0.56336
0.523938
0.483501
0.445707
0.41485
0.394695
0.38766
0.391975
0.715753
0.742512
0.756511
0.771068
0.783097
0.792411
0.798719
0.801631
0.800801
0.7959
0.786618
0.772682
0.753904
0.73029
0.702266
0.670986
0.63862
0.608394
0.584071
0.56897
0.565563
0.572651
0.775616
0.806189
0.824941
0.844274
0.861384
0.876026
0.887922
0.896685
0.901973
0.903455
0.900821
0.893798
0.882194
0.865997
0.845579
0.821959
0.797052
0.773705
0.755235
0.744595
0.74433
0.753749
0.837823
0.871913
0.895371
0.919324
0.941338
0.96111
0.978369
0.992735
1.00387
1.01144
1.01514
1.01471
1.00995
1.00082
0.987641
0.971293
0.953438
0.936556
0.923538
0.917005
0.919545
0.930896
0.900262
0.93755
0.965677
0.994197
1.02106
1.0459
1.06844
1.08831
1.10515
1.11864
1.12847
1.13437
1.13611
1.13367
1.12727
1.11766
1.10626
1.09523
1.08708
1.08414
1.08905
1.10195
0.961568
1.00176
1.03434
1.06719
1.09861
1.12821
1.1557
1.18071
1.20288
1.22189
1.23741
1.24916
1.25693
1.26064
1.26046
1.25701
1.25148
1.24573
1.24192
1.24214
1.24908
1.26323
1.01981
1.06256
1.0993
1.13618
1.17185
1.20589
1.23799
1.26777
1.29488
1.31898
1.33973
1.35686
1.37013
1.37943
1.38487
1.38695
1.38665
1.38555
1.38553
1.38847
1.39709
1.4122
1.07344
1.11843
1.15891
1.19943
1.23891
1.27692
1.31314
1.34719
1.37871
1.40734
1.43275
1.45465
1.47279
1.48703
1.49742
1.50434
1.5086
1.51154
1.51479
1.52003
1.53004
1.54592
1.12072
1.1676
1.21134
1.25503
1.29783
1.33932
1.37913
1.4169
1.45225
1.48482
1.51427
1.54029
1.56263
1.58111
1.59574
1.60679
1.61493
1.62128
1.62727
1.63443
1.64556
1.66201
1.16064
1.20904
1.25547
1.30179
1.34733
1.39167
1.43445
1.47528
1.51378
1.54959
1.58236
1.61177
1.63756
1.65952
1.67762
1.69204
1.70333
1.71245
1.72066
1.72935
1.74136
1.75825
1.19142
1.24099
1.2895
1.33787
1.38557
1.43215
1.47726
1.5205
1.56147
1.59982
1.63518
1.66724
1.69571
1.72037
1.74116
1.75819
1.77191
1.78316
1.79306
1.80292
1.81559
1.83279
1.21363
1.26401
1.31394
1.36371
1.41284
1.46093
1.50758
1.55241
1.59503
1.63506
1.67215
1.70597
1.73622
1.76269
1.78528
1.80406
1.81941
1.8321
1.84313
1.85378
1.86689
1.88429
1.22398
1.27478
1.32549
1.37604
1.426
1.47496
1.52252
1.5683
1.61189
1.65293
1.69104
1.7259
1.75721
1.78473
1.80836
1.82814
1.84443
1.85792
1.8696
1.88069
1.89405
1.91158
-0.124053
-0.152729
-0.177886
-0.201766
-0.223982
-0.24478
-0.264283
-0.282726
-0.300045
-0.316546
-0.331707
-0.346244
-0.358227
-0.370852
-0.376174
-0.391579
-0.412984
-0.423213
-0.430599
-0.434715
-0.436752
-0.437077
-0.436083
-0.434165
-0.431763
-0.429331
-0.427189
-0.425689
-0.424713
-0.424712
-0.167498
-0.194971
-0.218698
-0.240942
-0.261431
-0.280444
-0.298111
-0.314768
-0.330248
-0.345043
-0.358328
-0.371228
-0.381348
-0.392262
-0.397393
-0.409654
-0.427172
-0.43529
-0.440952
-0.443582
-0.444276
-0.443452
-0.441592
-0.439109
-0.43641
-0.433891
-0.431804
-0.430443
-0.429617
-0.429779
-0.213221
-0.239684
-0.262111
-0.282791
-0.301555
-0.318711
-0.3344
-0.349013
-0.362326
-0.374932
-0.385854
-0.39649
-0.404075
-0.412787
-0.415112
-0.424489
-0.437203
-0.442549
-0.446091
-0.44752
-0.447659
-0.44668
-0.444859
-0.442495
-0.439948
-0.437599
-0.435684
-0.434494
-0.433799
-0.43413
-0.261444
-0.286299
-0.30686
-0.325407
-0.341874
-0.356581
-0.369689
-0.381614
-0.392147
-0.401906
-0.41
-0.41783
-0.422978
-0.429268
-0.430214
-0.437155
-0.44589
-0.449424
-0.45164
-0.452214
-0.451709
-0.450264
-0.448148
-0.44565
-0.443102
-0.440843
-0.43907
-0.438041
-0.437481
-0.437977
-0.311617
-0.334583
-0.352986
-0.369069
-0.382868
-0.394703
-0.404774
-0.41351
-0.420779
-0.427205
-0.432102
-0.436794
-0.439306
-0.443028
-0.442397
-0.447005
-0.452409
-0.454366
-0.455405
-0.455296
-0.454389
-0.452744
-0.450564
-0.448101
-0.445658
-0.443547
-0.441942
-0.441081
-0.440656
-0.441315
-0.363773
-0.384335
-0.400043
-0.413089
-0.423607
-0.431933
-0.438334
-0.443277
-0.446773
-0.449471
-0.450963
-0.452451
-0.452472
-0.453838
-0.452024
-0.454644
-0.45765
-0.458534
-0.458771
-0.458154
-0.45688
-0.454996
-0.452693
-0.450215
-0.447839
-0.445851
-0.444397
-0.443691
-0.443394
-0.444212
-0.41739
-0.435
-0.447445
-0.456856
-0.46348
-0.467705
-0.469908
-0.470636
-0.470087
-0.468949
-0.467077
-0.465528
-0.463256
-0.462507
-0.459641
-0.460585
-0.461889
-0.461928
-0.461512
-0.460465
-0.458885
-0.456815
-0.454429
-0.451954
-0.449652
-0.447783
-0.446469
-0.445909
-0.445736
-0.446711
-0.471955
-0.485932
-0.494426
-0.49952
-0.501605
-0.501176
-0.498768
-0.495048
-0.490406
-0.485563
-0.480576
-0.476331
-0.472076
-0.469542
-0.465794
-0.465367
-0.465512
-0.464888
-0.463945
-0.462512
-0.460641
-0.458381
-0.455898
-0.453413
-0.451167
-0.449397
-0.448208
-0.447778
-0.447721
-0.448854
-0.526572
-0.536155
-0.53998
-0.540116
-0.537138
-0.531704
-0.524537
-0.516426
-0.507921
-0.499735
-0.492033
-0.485505
-0.479581
-0.47555
-0.471009
-0.46945
-0.468762
-0.467551
-0.466128
-0.464322
-0.462165
-0.459714
-0.45713
-0.454623
-0.452418
-0.45073
-0.449647
-0.449334
-0.449385
-0.450677
-0.580088
-0.584507
-0.583015
-0.577703
-0.569367
-0.558859
-0.547076
-0.5349
-0.522964
-0.511922
-0.501954
-0.493554
-0.486245
-0.480962
-0.475684
-0.473162
-0.471813
-0.470043
-0.468155
-0.465969
-0.46352
-0.460867
-0.458169
-0.455624
-0.45344
-0.451813
-0.450817
-0.450605
-0.450753
-0.452208
-0.631114
-0.62973
-0.622484
-0.611521
-0.59786
-0.582532
-0.566555
-0.55084
-0.53602
-0.522641
-0.510837
-0.500916
-0.492446
-0.486088
-0.480099
-0.476722
-0.474771
-0.472436
-0.470074
-0.467495
-0.464739
-0.461872
-0.459045
-0.456444
-0.45426
-0.452673
-0.451742
-0.451614
-0.451848
-0.453466
-0.678233
-0.670696
-0.657602
-0.641148
-0.622535
-0.60292
-0.58336
-0.564723
-0.547578
-0.532335
-0.519053
-0.507885
-0.498419
-0.491111
-0.484422
-0.480251
-0.477692
-0.474771
-0.471916
-0.468925
-0.465849
-0.462753
-0.45978
-0.457103
-0.454899
-0.453329
-0.452443
-0.45238
-0.452687
-0.454464
-0.720252
-0.706622
-0.687987
-0.666558
-0.643645
-0.620448
-0.597989
-0.577039
-0.558064
-0.541341
-0.526855
-0.514634
-0.504285
-0.49611
-0.488729
-0.483797
-0.48059
-0.477062
-0.473692
-0.470275
-0.466865
-0.463526
-0.460389
-0.457617
-0.45537
-0.453795
-0.452934
-0.452919
-0.453283
-0.455208
-0.756447
-0.73722
-0.71371
-0.688083
-0.661673
-0.63565
-0.610944
-0.588207
-0.567795
-0.549876
-0.534375
-0.521234
-0.510075
-0.501088
-0.493029
-0.487353
-0.483451
-0.479299
-0.475399
-0.471544
-0.467791
-0.464196
-0.46088
-0.457993
-0.455682
-0.454082
-0.453227
-0.453242
-0.453647
-0.455701
-0.786684
-0.762706
-0.735223
-0.706295
-0.677207
-0.649053
-0.622649
-0.598533
-0.57697
-0.558048
-0.541654
-0.527677
-0.515757
-0.505999
-0.497282
-0.490877
-0.486239
-0.481456
-0.477019
-0.472725
-0.468622
-0.464762
-0.461254
-0.458234
-0.45584
-0.454196
-0.453329
-0.45336
-0.453793
-0.455944
-0.811386
-0.783695
-0.753212
-0.721852
-0.690815
-0.661099
-0.633413
-0.608208
-0.585683
-0.565879
-0.548667
-0.533907
-0.521259
-0.510764
-0.501416
-0.494301
-0.488903
-0.483496
-0.478527
-0.473798
-0.469347
-0.465216
-0.461504
-0.458337
-0.455842
-0.454138
-0.453247
-0.453283
-0.453735
-0.455943
-0.831375
-0.801017
-0.768433
-0.735382
-0.702971
-0.672111
-0.643431
-0.617322
-0.593951
-0.573335
-0.555347
-0.539838
-0.526489
-0.515286
-0.505343
-0.497545
-0.491383
-0.485375
-0.47989
-0.474742
-0.469951
-0.465549
-0.461625
-0.458296
-0.455686
-0.453909
-0.452984
-0.453021
-0.453491
-0.455711
-0.847656
-0.815546
-0.781588
-0.747405
-0.714027
-0.682298
-0.652802
-0.625898
-0.601743
-0.580354
-0.561616
-0.545381
-0.531353
-0.519474
-0.508971
-0.500528
-0.493624
-0.48705
-0.481081
-0.475537
-0.470419
-0.46575
-0.461608
-0.458106
-0.455366
-0.453504
-0.452542
-0.452582
-0.453083
-0.455277
-0.86116
-0.828
-0.793189
-0.75825
-0.724161
-0.691729
-0.661518
-0.633878
-0.608976
-0.58684
-0.567374
-0.550439
-0.535759
-0.52324
-0.512216
-0.503176
-0.495575
-0.488486
-0.482075
-0.476167
-0.470742
-0.465812
-0.46145
-0.457766
-0.454885
-0.45293
-0.451929
-0.451984
-0.452541
-0.454688
-0.872668
-0.83893
-0.803583
-0.7681
-0.733434
-0.700381
-0.669502
-0.641158
-0.615533
-0.592673
-0.572503
-0.554896
-0.539599
-0.526485
-0.514985
-0.505414
-0.49719
-0.489653
-0.482855
-0.476623
-0.470917
-0.465738
-0.461156
-0.457282
-0.454251
-0.452195
-0.451157
-0.451242
-0.451899
-0.454018
-0.883686
-0.849594
-0.813798
-0.777794
-0.742536
-0.708823
-0.677228
-0.648131
-0.621736
-0.598114
-0.577211
-0.558915
-0.542993
-0.529297
-0.517329
-0.50727
-0.498504
-0.490575
-0.483437
-0.476912
-0.470935
-0.465502
-0.460679
-0.456588
-0.453376
-0.451195
-0.450114
-0.450257
-0.451099
-0.453334
-0.895371
-0.860958
-0.824627
-0.788002
-0.752048
-0.717573
-0.685166
-0.655229
-0.62799
-0.60354
-0.581845
-0.562812
-0.546225
-0.531932
-0.519473
-0.508925
-0.499656
-0.491348
-0.483887
-0.477073
-0.470816
-0.465102
-0.460001
-0.455648
-0.45221
-0.44987
-0.448729
-0.448952
-0.450073
-0.45271
0.19412
0.19404
0.194166
0.194312
0.194517
0.19471
0.194872
0.194962
0.194953
0.194817
0.194539
0.194109
0.193528
0.192802
0.191945
0.190974
0.189906
0.188759
0.187546
0.186282
0.184975
0.183638
0.182281
0.180922
0.194137
0.194033
0.194162
0.194308
0.194521
0.19472
0.194887
0.194975
0.194958
0.194807
0.194508
0.19405
0.193438
0.19268
0.191793
0.190793
0.1897
0.188531
0.1873
0.186019
0.184697
0.183345
0.181971
0.180593
0.194016
0.193885
0.194016
0.194158
0.194377
0.194578
0.194745
0.194829
0.194801
0.194632
0.194309
0.193824
0.193183
0.192397
0.191484
0.190462
0.189352
0.18817
0.186931
0.185645
0.184322
0.182968
0.181592
0.180208
0.193747
0.193588
0.193717
0.193854
0.194074
0.194273
0.194438
0.194513
0.19447
0.194282
0.193934
0.193423
0.192755
0.191944
0.191011
0.189974
0.188855
0.187671
0.186435
0.185157
0.183845
0.182504
0.181139
0.179766
0.193321
0.193131
0.193258
0.193385
0.193603
0.193798
0.193956
0.194018
0.193958
0.193748
0.193375
0.192838
0.192146
0.191316
0.190368
0.189325
0.188207
0.187031
0.18581
0.184552
0.183264
0.181949
0.180612
0.179264
0.19273
0.192509
0.19263
0.192746
0.192959
0.193145
0.193292
0.193338
0.193259
0.193025
0.192628
0.192067
0.191355
0.19051
0.189555
0.188513
0.187405
0.186248
0.185053
0.183829
0.182578
0.181304
0.180008
0.1787
0.191968
0.191714
0.191828
0.19193
0.192134
0.192308
0.192441
0.192469
0.192368
0.19211
0.191688
0.191106
0.190378
0.189525
0.18857
0.187538
0.186451
0.185323
0.184167
0.182988
0.181788
0.180568
0.179328
0.178076
0.191028
0.190742
0.190847
0.190932
0.191125
0.191283
0.191399
0.191406
0.191282
0.191
0.190556
0.189956
0.189217
0.188362
0.187415
0.186403
0.185346
0.184259
0.183153
0.182031
0.180894
0.179742
0.178572
0.177391
0.189908
0.189588
0.189683
0.189748
0.189927
0.190067
0.190163
0.190148
0.19
0.189695
0.189231
0.188618
0.187873
0.187023
0.186094
0.185111
0.184094
0.183059
0.182013
0.18096
0.179899
0.178827
0.177741
0.176645
0.188603
0.18825
0.188333
0.188377
0.188539
0.188659
0.188734
0.188695
0.188523
0.188196
0.187716
0.187093
0.18635
0.185513
0.184609
0.183664
0.182698
0.181724
0.18075
0.179777
0.178803
0.177824
0.176835
0.175839
0.187111
0.186724
0.186794
0.186816
0.186961
0.187058
0.18711
0.187047
0.186853
0.186506
0.186013
0.185387
0.184651
0.183834
0.182964
0.182067
0.18116
0.180258
0.179366
0.178484
0.177608
0.176734
0.175856
0.174973
0.18543
0.185011
0.185067
0.185066
0.185191
0.185264
0.185293
0.185206
0.184991
0.184627
0.184126
0.183501
0.18278
0.181991
0.181164
0.180322
0.179484
0.178663
0.177862
0.177081
0.176315
0.175558
0.174802
0.174047
0.183561
0.183109
0.183151
0.183125
0.18323
0.183279
0.183285
0.183175
0.182939
0.182563
0.182058
0.181441
0.180741
0.179987
0.17921
0.178432
0.177672
0.17694
0.176239
0.175569
0.174923
0.174294
0.173675
0.17306
0.181502
0.181019
0.181047
0.180996
0.181079
0.181104
0.181087
0.180955
0.180702
0.180317
0.179812
0.179209
0.178537
0.177826
0.177106
0.1764
0.175725
0.17509
0.174499
0.173949
0.173433
0.172944
0.172472
0.172012
0.179256
0.178742
0.178755
0.178679
0.178741
0.178741
0.178701
0.178549
0.178283
0.177891
0.177393
0.176809
0.176171
0.175509
0.174854
0.174226
0.173644
0.173114
0.17264
0.172219
0.171844
0.171506
0.171194
0.1709
0.176822
0.176279
0.176277
0.176177
0.176216
0.176193
0.176131
0.175961
0.175684
0.175291
0.174803
0.174243
0.173645
0.17304
0.172455
0.171913
0.171429
0.171012
0.170664
0.170381
0.170155
0.169978
0.169838
0.169724
0.174202
0.173632
0.173614
0.17349
0.173508
0.173461
0.17338
0.173194
0.172908
0.172517
0.172045
0.171515
0.170963
0.170418
0.16991
0.169459
0.169082
0.168784
0.168569
0.168433
0.168367
0.168361
0.168403
0.168481
0.171399
0.170802
0.17077
0.170621
0.170619
0.17055
0.170449
0.170249
0.169959
0.169574
0.169121
0.168627
0.168125
0.167647
0.167221
0.166867
0.166602
0.166431
0.166356
0.166375
0.166477
0.166653
0.166888
0.167168
0.168415
0.167792
0.167745
0.167574
0.167551
0.16746
0.167343
0.167131
0.166839
0.166464
0.166035
0.16558
0.165133
0.164727
0.164388
0.164137
0.163989
0.163951
0.164025
0.164207
0.164487
0.164854
0.165291
0.165784
0.165251
0.164605
0.164544
0.16435
0.164307
0.164196
0.164063
0.163842
0.16355
0.163189
0.162788
0.162376
0.161989