/*--------------------------------*- C++ -*----------------------------------*\
| =========                 |                                                 |
| \\      /  F ield         | OpenFOAM Extend Project: Open source CFD        |
|  \\    /   O peration     | Version:  1.6-ext                               |
|   \\  /    A nd           | Web:      www.extend-project.de                 |
|    \\/     M anipulation  |                                                 |
\*---------------------------------------------------------------------------*/
FoamFile
{
    version     2.0;
    format      ascii;
    class       surfaceScalarField;
    location    "0.75";
    object      phi;
}
// * * * * * * * * * * * * * * * * * * * * * * * * * * * * * * * * * * * * * //

dimensions      [0 3 -1 0 0 0 0];

internalField   nonuniform List<scalar> 
41420
(
-0.000126929
0.000396956
-0.000397693
0.000127665
-0.000125733
0.000378035
-0.000379231
-0.00012411
0.000359457
-0.00036108
-0.000122061
0.000341124
-0.000343174
-0.000119522
0.000323034
-0.000325573
-0.000116343
0.000304974
-0.000308153
-0.000112285
0.000286593
-0.000290651
-0.000107054
0.00026742
-0.000272651
-0.000100375
0.000246971
-0.00025365
-9.20933e-05
0.000224901
-0.000233182
-8.22651e-05
0.000201155
-0.000210983
-7.12e-05
0.00017606
-0.000187125
-5.9429e-05
0.000150302
-0.000162073
-4.76115e-05
0.000124804
-0.000136621
-3.64056e-05
0.000100534
-0.00011174
-2.63607e-05
7.83242e-05
-8.83691e-05
-1.78485e-05
5.87519e-05
-6.72641e-05
-1.10527e-05
4.21017e-05
-4.88975e-05
-5.99438e-06
2.83946e-05
-3.34529e-05
-2.57897e-06
1.74532e-05
-2.08686e-05
-6.44395e-07
8.97615e-06
-1.09107e-05
2.60554e-06
-3.24993e-06
-0.000134734
0.000396048
0.000135643
-0.000133343
0.000376645
-0.000131488
0.000357601
-0.00012913
0.000338767
-0.000126157
0.000320061
-0.000122355
0.000301172
-0.000117438
0.000281675
-0.000111102
0.000261084
-0.000103126
0.000238996
-9.34737e-05
0.000215248
-8.23572e-05
0.000190038
-7.02399e-05
0.000163942
-5.77606e-05
0.000137822
-4.56099e-05
0.000112653
-3.44062e-05
8.93302e-05
-2.46073e-05
6.85253e-05
-1.64776e-05
5.06222e-05
-1.01014e-05
3.57256e-05
-5.42522e-06
2.37184e-05
-2.30772e-06
1.43357e-05
-5.64047e-07
7.23248e-06
2.04149e-06
-0.000149611
0.000394469
0.00015119
-0.000147523
0.000374556
-0.000144916
0.000354995
-0.000141699
0.000335551
-0.00013769
0.000316051
-0.000132607
0.000296089
-0.00012613
0.000275198
-0.000117983
0.000252937
-0.000108049
0.000229061
-9.64547e-05
0.000203654
-8.36034e-05
0.000177187
-7.01157e-05
0.000150455
-5.67144e-05
0.000124421
-4.40882e-05
0.000100027
-3.27821e-05
7.8024e-05
-2.31427e-05
5.88859e-05
-1.53177e-05
4.27973e-05
-9.29292e-06
2.97008e-05
-4.94328e-06
1.93687e-05
-2.08268e-06
1.1475e-05
-5.02984e-07
5.65279e-06
1.53851e-06
-0.000163887
0.000392243
0.000166112
-0.0001611
0.00037177
-0.000157694
0.000351589
-0.000153504
0.000331361
-0.000148269
0.000310817
-0.000141656
0.000289476
-0.000133347
0.00026689
-0.000123156
0.000242745
-0.000111129
0.000217034
-9.76041e-05
0.000190129
-8.31741e-05
0.000162757
-6.85825e-05
0.000135863
-5.45793e-05
0.000110418
-4.17931e-05
8.72407e-05
-3.06545e-05
6.68854e-05
-2.13799e-05
4.96113e-05
-1.40007e-05
3.54181e-05
-8.41428e-06
2.41144e-05
-4.43814e-06
1.53926e-05
-1.85501e-06
8.89192e-06
-4.4405e-07
4.24183e-06
1.09446e-06
-0.00017684
0.000389417
0.000179666
-0.000173357
0.000368286
-0.000169089
0.000347321
-0.000163782
0.000326054
-0.000157103
0.000304138
-0.0001487
0.000281073
-0.000138326
0.000256516
-0.000125954
0.000230373
-0.000111853
0.000202934
-9.65839e-05
0.00017486
-8.08992e-05
0.000147073
-6.5602e-05
0.000120566
-5.1399e-05
9.62148e-05
-3.88047e-05
7.46464e-05
-2.81073e-05
5.61881e-05
-1.93892e-05
4.08932e-05
-1.25762e-05
2.86051e-05
-7.4951e-06
1.90333e-05
-3.92389e-06
1.18214e-05
-1.62853e-06
6.59657e-06
-3.86737e-07
3.00003e-06
7.07718e-07
-0.000188384
0.000386013
0.000191788
-0.000184155
0.000364058
-0.000178883
0.000342049
-0.000172226
0.000319397
-0.000163815
0.000295727
-0.000153345
0.000270603
-0.00014072
0.000243891
-0.000126144
0.000215797
-0.000110137
0.000186927
-9.34569e-05
0.00015818
-7.69526e-05
0.000130568
-6.14047e-05
0.000105018
-4.74099e-05
8.22201e-05
-3.53302e-05
6.25666e-05
-2.5302e-05
4.61599e-05
-1.72839e-05
3.28752e-05
-1.11164e-05
2.24376e-05
-6.5766e-06
1.44935e-05
-3.4204e-06
8.6652e-06
-1.41068e-06
4.58684e-06
-3.32528e-07
1.92189e-06
3.7519e-07
-0.000198298
0.000381984
0.000202326
-0.000193189
0.000358949
-0.000186682
0.000335542
-0.000178372
0.000311088
-0.000167919
0.000285274
-0.000155156
0.00025784
-0.000140223
0.000228957
-0.000123597
0.000199171
-0.000106035
0.000169365
-8.84247e-05
0.00014057
-7.16168e-05
0.00011376
-5.629e-05
8.96909e-05
-4.28811e-05
6.88112e-05
-3.15842e-05
5.12697e-05
-2.2394e-05
3.69697e-05
-1.51676e-05
2.56488e-05
-9.68445e-06
1.69544e-05
-5.69325e-06
1.05023e-05
-2.94416e-06
5.9161e-06
-1.20752e-06
2.8502e-06
-2.82691e-07
9.97054e-07
9.24988e-08
-0.000206359
0.000377236
0.000211108
-0.000200151
0.00035274
-0.000192097
0.000327487
-0.000181795
0.000300786
-0.000169027
0.000272506
-0.000153868
0.000242681
-0.000136753
0.000211843
-0.000118432
0.00018085
-9.98281e-05
0.000150761
-8.18585e-05
0.0001226
-6.52813e-05
9.71832e-05
-5.06091e-05
7.50186e-05
-3.80956e-05
5.62977e-05
-2.7775e-05
4.09491e-05
-1.95245e-05
2.87192e-05
-1.31287e-05
1.9253e-05
-8.33128e-06
1.2157e-05
-4.8717e-06
7.04267e-06
-2.50712e-06
3.55153e-06
-1.02331e-06
1.36638e-06
-2.38035e-07
2.11783e-07
-1.45537e-07
-0.000212188
0.000371527
0.000217897
-0.00020456
0.000345113
-0.000194603
0.000317529
-0.000182017
0.0002882
-0.000166815
0.000257304
-0.000149379
0.000225245
-0.000130451
0.000192915
-0.000110987
0.000161385
-9.19679e-05
0.000131742
-7.42347e-05
0.000104867
-5.83773e-05
8.13258e-05
-4.47114e-05
6.13527e-05
-3.33125e-05
4.48989e-05
-2.40806e-05
3.17171e-05
-1.68078e-05
2.14464e-05
-1.12353e-05
1.36805e-05
-7.09426e-06
8.0159e-06
-4.13032e-06
4.07874e-06
-2.11704e-06
1.53825e-06
-8.60461e-07
1.09802e-07
-1.9894e-07
-4.49738e-07
-3.44476e-07
-0.000215418
0.000364611
0.000222334
-0.000206026
0.000335721
-0.000193853
0.000305356
-0.000178822
0.00027317
-0.000161276
0.000239757
-0.000141929
0.000205898
-0.000121764
0.000172751
-0.000101831
0.000141451
-8.30492e-05
0.000112961
-6.6092e-05
8.79095e-05
-5.13422e-05
6.6576e-05
-3.89213e-05
4.89319e-05
-2.87548e-05
3.47324e-05
-2.06443e-05
2.36066e-05
-1.43301e-05
1.51322e-05
-9.53629e-06
8.88674e-06
-5.999e-06
4.47861e-06
-3.48123e-06
1.56097e-06
-1.77877e-06
-1.64208e-07
-7.20453e-07
-9.4852e-07
-1.65622e-07
-1.00457e-06
-5.10099e-07
-0.000215496
0.000356034
0.000224073
-0.000203997
0.000324222
-0.000189435
0.000290794
-0.00017206
0.000255794
-0.000152557
0.000220254
-0.000131924
0.000185265
-0.000111267
0.000152093
-9.15903e-05
0.000121775
-7.36536e-05
9.50241e-05
-5.79121e-05
7.2168e-05
-4.45392e-05
5.32031e-05
-3.34921e-05
3.78848e-05
-2.45866e-05
2.58269e-05
-1.75653e-05
1.65853e-05
-1.21474e-05
9.71424e-06
-8.06069e-06
4.80006e-06
-5.05921e-06
1.47713e-06
-2.93001e-06
-5.68223e-07
-1.49403e-06
-1.60019e-06
-6.03471e-07
-1.83908e-06
-1.37952e-07
-1.47009e-06
-6.48051e-07
-0.000212313
0.00034565
0.000222697
-0.000198551
0.00031046
-0.000181656
0.000273899
-0.000162276
0.000236414
-0.00014141
0.000199389
-0.000120225
0.00016408
-9.98111e-05
0.00013168
-8.10205e-05
0.000102984
-6.43864e-05
7.839e-05
-5.01406e-05
5.79223e-05
-3.82743e-05
4.13369e-05
-2.86209e-05
2.82313e-05
-2.09281e-05
1.81341e-05
-1.49128e-05
1.05701e-05
-1.0297e-05
5.09846e-06
-6.82735e-06
1.33039e-06
-4.28365e-06
-1.06658e-06
-2.4804e-06
-2.37146e-06
-1.26433e-06
-2.81626e-06
-5.10148e-07
-2.59326e-06
-1.16184e-07
-1.86405e-06
-7.64235e-07
-0.000205342
0.000332953
0.000218038
-0.000189346
0.000294465
-0.000170491
0.000255045
-0.000149769
0.000215692
-0.000128367
0.000177986
-0.000107467
0.000143179
-8.80134e-05
0.000112226
-7.06345e-05
8.56051e-05
-5.56287e-05
6.33841e-05
-4.30313e-05
4.53249e-05
-3.26989e-05
3.10045e-05
-2.43873e-05
1.99198e-05
-1.7814e-05
1.15607e-05
-1.2697e-05
5.45308e-06
-8.77782e-06
1.1793e-06
-5.83115e-06
-1.61628e-06
-3.66696e-06
-3.23077e-06
-2.12831e-06
-3.91011e-06
-1.08706e-06
-3.85751e-06
-4.39042e-07
-3.24128e-06
-9.97052e-08
-2.20339e-06
-8.63941e-07
-0.000195207
0.000318481
0.000209679
-0.00017737
0.000276628
-0.000157116
0.000234792
-0.000135806
0.000194381
-0.00011464
0.000156821
-9.47043e-05
0.000123243
-7.67148e-05
9.42367e-05
-6.10508e-05
6.99412e-05
-4.78e-05
5.01333e-05
-3.68475e-05
3.43724e-05
-2.79633e-05
2.21202e-05
-2.08675e-05
1.2824e-05
-1.5276e-05
5.96921e-06
-1.0926e-05
1.10306e-06
-7.58767e-06
-2.15901e-06
-5.06736e-06
-4.13659e-06
-3.20548e-06
-5.09265e-06
-1.8723e-06
-5.2433e-06
-9.62816e-07
-4.76699e-06
-3.91858e-07
-3.81223e-06
-8.99581e-08
-2.50529e-06
-9.53899e-07
-0.000181635
0.000301791
0.000198326
-0.000162556
0.000257548
-0.00014178
0.000214016
-0.000120785
0.000173386
-0.000100702
0.000136738
-8.23685e-05
0.00010491
-6.62433e-05
7.81114e-05
-5.2476e-05
5.61739e-05
-4.09959e-05
3.86532e-05
-3.15999e-05
2.49764e-05
-2.4023e-05
1.45433e-05
-1.79869e-05
6.7879e-06
-1.32288e-05
1.21111e-06
-9.51614e-06
-2.60963e-06
-6.65169e-06
-5.02346e-06
-4.47311e-06
-6.31518e-06
-2.84904e-06
-6.71672e-06
-1.67423e-06
-6.41811e-06
-8.64346e-07
-5.57687e-06
-3.51134e-07
-4.32545e-06
-7.86795e-08
-2.77774e-06
-1.03258e-06
-0.000343692
0.000245568
0.000399915
-0.000288171
0.000202027
-0.00023594
0.000161785
-0.000188863
0.000126309
-0.000147956
9.58314e-05
-0.000113554
7.05081e-05
-8.5412e-05
4.99698e-05
-6.29395e-05
3.37013e-05
-4.5372e-05
2.10858e-05
-3.19083e-05
1.15127e-05
-2.17902e-05
4.42523e-06
-1.43456e-05
-6.56669e-07
-9.00199e-06
-4.1325e-06
-5.28424e-06
-6.32738e-06
-2.80443e-06
-7.50327e-06
-1.24832e-06
-7.87128e-06
-3.62048e-07
-7.60299e-06
5.97901e-08
-6.83994e-06
1.8384e-07
-5.70092e-06
1.45664e-07
-4.28727e-06
5.51015e-08
-2.68718e-06
-9.77477e-07
-0.000284968
0.000187358
0.000343178
-0.000231371
0.00014843
-0.000183901
0.000114314
-0.000143246
8.56541e-05
-0.000109434
6.20192e-05
-8.20154e-05
4.30897e-05
-6.02665e-05
2.82209e-05
-4.3349e-05
1.67838e-05
-3.04281e-05
8.16486e-06
-2.07386e-05
1.82309e-06
-1.3615e-05
-2.69833e-06
-8.49883e-06
-5.77283e-06
-4.93164e-06
-7.69969e-06
-2.54254e-06
-8.71649e-06
-1.03367e-06
-9.01213e-06
-1.66517e-07
-8.73844e-06
2.50065e-07
-8.01958e-06
3.69507e-07
-6.95939e-06
3.15175e-07
-5.64659e-06
1.86073e-07
-4.15817e-06
6.08004e-08
-2.56191e-06
-9.16676e-07
-0.000222836
0.000133239
0.000276955
-0.000175616
0.000101211
-0.00013581
7.45081e-05
-0.000103062
5.29058e-05
-7.6763e-05
3.57203e-05
-5.60529e-05
2.23795e-05
-4.00407e-05
1.22088e-05
-2.78712e-05
4.61434e-06
-1.87836e-05
-9.22761e-07
-1.21285e-05
-4.83204e-06
-7.36775e-06
-7.45907e-06
-4.06393e-06
-9.07665e-06
-1.86561e-06
-9.89801e-06
-4.92265e-07
-1.00898e-05
2.79472e-07
-9.78387e-06
6.27393e-07
-9.08636e-06
6.93109e-07
-8.08529e-06
5.89356e-07
-6.85563e-06
4.05567e-07
-5.4628e-06
2.12157e-07
-3.96476e-06
6.34713e-08
-2.41322e-06
-8.53205e-07
-0.000164143
8.72353e-05
0.000210147
-0.000125685
6.2752e-05
-9.45017e-05
4.3325e-05
-6.96549e-05
2.8059e-05
-5.02641e-05
1.63296e-05
-3.53771e-05
7.49245e-06
-2.41428e-05
9.74493e-07
-1.58145e-05
-3.71398e-06
-9.76629e-06
-6.97092e-06
-5.48527e-06
-9.11306e-06
-2.5576e-06
-1.03867e-05
-6.52838e-07
-1.09814e-05
4.91547e-07
-1.10424e-05
1.0837e-06
-1.0682e-05
1.28861e-06
-9.98878e-06
1.23709e-06
-9.03484e-06
1.03271e-06
-7.88091e-06
7.57052e-07
-6.57997e-06
4.73642e-07
-5.17939e-06
2.30994e-07
-3.72211e-06
6.48677e-08
-2.2471e-06
-7.88337e-07
-0.000112833
5.09725e-05
0.000149095
-8.36048e-05
3.3524e-05
-6.06131e-05
2.03333e-05
-4.27996e-05
1.02455e-05
-2.92574e-05
2.78735e-06
-1.9135e-05
-2.62996e-06
-1.17181e-05
-6.44239e-06
-6.41145e-06
-9.02065e-06
-2.73192e-06
-1.06505e-05
-2.92089e-07
-1.15529e-05
1.21609e-06
-1.18949e-05
2.03653e-06
-1.18019e-05
2.36198e-06
-1.13678e-05
2.34474e-06
-1.06647e-05
2.10513e-06
-9.74918e-06
1.73807e-06
-8.66777e-06
1.31804e-06
-7.46089e-06
9.02842e-07
-6.16477e-06
5.36347e-07
-4.8129e-06
2.50603e-07
-3.43637e-06
6.74829e-08
-2.06398e-06
-7.20854e-07
-7.03055e-05
2.42728e-05
9.70052e-05
-4.94973e-05
1.27159e-05
-3.35637e-05
4.39964e-06
-2.15814e-05
-1.73671e-06
-1.27545e-05
-6.03961e-06
-6.40436e-06
-8.98005e-06
-1.97566e-06
-1.08711e-05
9.80232e-07
-1.19765e-05
2.82134e-06
-1.24916e-05
3.83144e-06
-1.2563e-05
4.23455e-06
-1.2298e-05
4.20731e-06
-1.17746e-05
3.8889e-06
-1.10494e-05
3.38901e-06
-1.01649e-05
2.79395e-06
-9.15412e-06
2.17137e-06
-8.04519e-06
1.57352e-06
-6.86304e-06
1.04015e-06
-5.6314e-06
6.00165e-07
-4.37291e-06
2.73455e-07
-3.10966e-06
7.18029e-08
-1.86232e-06
-6.49051e-07
-3.62422e-05
5.9302e-06
5.45848e-05
-2.24723e-05
-1.05406e-06
-1.22834e-05
-5.78921e-06
-4.94825e-06
-9.07187e-06
1.68244e-07
-1.11561e-05
3.57366e-06
-1.23855e-05
5.679e-06
-1.29764e-05
6.80971e-06
-1.31073e-05
7.22296e-06
-1.29048e-05
7.12086e-06
-1.24609e-05
6.66203e-06
-1.18392e-05
5.971e-06
-1.10836e-05
5.14563e-06
-1.02241e-05
4.26271e-06
-9.28194e-06
3.38251e-06
-8.27391e-06
2.55161e-06
-7.21429e-06
1.80569e-06
-6.11712e-06
1.17071e-06
-4.99642e-06
6.64801e-07
-3.86701e-06
2.98777e-07
-2.74363e-06
7.74561e-08
-1.641e-06
-5.71595e-07
-9.5456e-06
-5.53548e-06
2.10113e-05
-1.4054e-06
-9.19425e-06
4.23799e-06
-1.14326e-05
7.93541e-06
-1.27693e-05
1.01632e-05
-1.33839e-05
1.12859e-05
-1.35082e-05
1.15953e-05
-1.32858e-05
1.13184e-05
-1.28304e-05
1.06327e-05
-1.22191e-05
9.67601e-06
-1.15042e-05
8.55588e-06
-1.07191e-05
7.35605e-06
-9.88376e-06
6.14186e-06
-9.00987e-06
4.96448e-06
-8.10456e-06
3.86355e-06
-7.17298e-06
2.86971e-06
-6.22045e-06
2.00556e-06
-5.25298e-06
1.28738e-06
-4.27825e-06
7.25126e-07
-3.30475e-06
3.23866e-07
-2.34237e-06
8.35355e-08
-1.40067e-06
-4.8806e-07
1.07607e-05
-1.15294e-05
-4.76678e-06
1.45106e-05
-1.29441e-05
1.66366e-05
-1.35586e-05
1.75411e-05
-1.36739e-05
1.75635e-05
-1.34062e-05
1.69548e-05
-1.28995e-05
1.59114e-05
-1.22425e-05
1.45828e-05
-1.15017e-05
1.30834e-05
-1.07196e-05
1.15004e-05
-9.92123e-06
9.90087e-06
-9.11957e-06
8.33633e-06
-8.31921e-06
6.84665e-06
-7.52019e-06
5.46261e-06
-6.72052e-06
4.2081e-06
-5.91847e-06
3.10094e-06
-5.11329e-06
2.15437e-06
-4.3064e-06
1.37687e-06
-3.50075e-06
7.7342e-07
-2.7013e-06
3.449e-07
-1.91385e-06
8.90097e-08
-1.14478e-06
-3.9905e-07
2.52735e-05
-1.32986e-05
-2.35042e-05
2.56963e-05
-1.3367e-05
2.51933e-05
-1.30556e-05
2.4039e-05
-1.25196e-05
2.2458e-05
-1.18252e-05
2.06106e-05
-1.10521e-05
1.86174e-05
-1.02493e-05
1.65665e-05
-9.45084e-06
1.45225e-05
-8.67567e-06
1.25332e-05
-7.93185e-06
1.06335e-05
-7.21988e-06
8.84984e-06
-6.53557e-06
7.2022e-06
-5.87255e-06
5.70587e-06
-5.2242e-06
4.37232e-06
-4.58492e-06
3.21023e-06
-3.95119e-06
2.22526e-06
-3.32143e-06
1.42104e-06
-2.69653e-06
7.98526e-07
-2.07878e-06
3.56813e-07
-1.47214e-06
9.2439e-08
-8.80409e-07
-3.06611e-07
3.41659e-05
-1.20001e-05
-3.54644e-05
3.22343e-05
-1.14354e-05
2.99223e-05
-1.07436e-05
2.73946e-05
-9.99197e-06
2.47809e-05
-9.21143e-06
2.21686e-05
-8.43983e-06
1.96187e-05
-7.69932e-06
1.71714e-05
-7.00357e-06
1.48533e-05
-6.35755e-06
1.26814e-05
-5.76001e-06
1.0667e-05
-5.20551e-06
8.81767e-06
-4.6862e-06
7.13866e-06
-4.19354e-06
5.63388e-06
-3.71941e-06
4.30624e-06
-3.25728e-06
3.15744e-06
-2.80239e-06
2.18847e-06
-2.35247e-06
1.39901e-06
-1.90707e-06
7.88081e-07
-1.46786e-06
3.53463e-07
-1.03752e-06
9.21368e-08
-6.19082e-07
-2.14474e-07
3.73179e-05
-8.79114e-06
-4.05268e-05
3.39991e-05
-8.11672e-06
3.06927e-05
-7.43716e-06
2.74744e-05
-6.77367e-06
2.43998e-05
-6.13682e-06
2.15005e-05
-5.54049e-06
1.87929e-05
-4.99172e-06
1.62826e-05
-4.49326e-06
1.39688e-05
-4.04378e-06
1.18475e-05
-3.63866e-06
9.91328e-06
-3.27132e-06
8.16124e-06
-2.93416e-06
6.58712e-06
-2.61941e-06
5.1877e-06
-2.32e-06
3.96042e-06
-2.02999e-06
2.9032e-06
-1.74518e-06
2.01384e-06
-1.46311e-06
1.29013e-06
-1.18336e-06
7.29423e-07
-9.07152e-07
3.29178e-07
-6.37278e-07
8.67052e-08
-3.7661e-07
-1.27769e-07
3.45012e-05
-4.88302e-06
-3.84093e-05
3.08007e-05
-4.41616e-06
2.73394e-05
-3.97592e-06
2.4131e-05
-3.56526e-06
2.11807e-05
-3.18647e-06
1.8483e-05
-2.84285e-06
1.60264e-05
-2.53511e-06
1.37954e-05
-2.26225e-06
1.17733e-05
-2.02167e-06
9.94408e-06
-1.80946e-06
8.29372e-06
-1.62096e-06
6.8107e-06
-1.45114e-06
5.48624e-06
-1.29495e-06
4.31397e-06
-1.14773e-06
3.28943e-06
-1.00545e-06
2.40927e-06
-8.65021e-07
1.67071e-06
-7.24541e-07
1.07083e-06
-5.83473e-07
6.06562e-07
-4.42889e-07
2.74716e-07
-3.05432e-07
7.27455e-08
-1.74639e-07
-5.50236e-08
2.55543e-05
-1.54414e-06
-2.88932e-05
2.25154e-05
-1.37725e-06
1.97623e-05
-1.22283e-06
1.72786e-05
-1.08158e-06
1.50463e-05
-9.54137e-07
1.30445e-05
-8.41106e-07
1.12515e-05
-7.42075e-07
9.64547e-06
-6.56204e-07
8.20601e-06
-5.82214e-07
6.91509e-06
-5.18542e-07
5.75757e-06
-4.63443e-07
4.72151e-06
-4.15073e-07
3.79813e-06
-3.71569e-07
2.9815e-06
-3.31108e-07
2.26804e-06
-2.91986e-07
1.65572e-06
-2.52707e-07
1.14329e-06
-2.12113e-07
7.29396e-07
-1.69576e-07
4.11836e-07
-1.25328e-07
1.87175e-07
-8.0771e-08
5.08906e-08
-3.83556e-08
-4.13305e-09
1.04962e-05
-1.19909e-05
9.15925e-06
7.96933e-06
6.91473e-06
5.98278e-06
5.16002e-06
4.43318e-06
3.78973e-06
3.21825e-06
2.70883e-06
2.2532e-06
1.84487e-06
1.47917e-06
1.15319e-06
8.65714e-07
6.16965e-07
4.08308e-07
2.41708e-07
1.18872e-07
4.00821e-08
3.15214e-09
0.000298245
2.5615e-05
1.13019e-06
-0.000324991
0.000272987
2.4102e-05
1.15652e-06
0.000249124
2.26852e-05
1.17783e-06
0.000226576
2.13538e-05
1.19395e-06
0.000205267
2.01036e-05
1.20512e-06
0.000185125
1.89308e-05
1.21165e-06
0.00016608
1.7831e-05
1.21385e-06
0.000148068
1.67998e-05
1.21205e-06
0.000131029
1.58327e-05
1.20654e-06
0.000114906
1.49252e-05
1.19761e-06
9.96486e-05
1.40721e-05
1.18538e-06
8.52136e-05
1.32654e-05
1.16955e-06
7.15739e-05
1.24907e-05
1.14894e-06
5.87303e-05
1.17227e-05
1.12094e-06
4.67264e-05
1.09226e-05
1.08132e-06
3.56617e-05
1.00401e-05
1.02458e-06
2.56953e-05
9.02158e-06
9.44851e-07
1.70366e-05
7.82134e-06
8.37379e-07
9.92298e-06
6.41391e-06
6.99674e-07
4.58936e-06
4.80126e-06
5.32364e-07
1.23545e-06
3.01462e-06
3.39282e-07
1.10872e-06
1.26732e-07
0.000297832
5.22829e-05
-0.0003245
0.000272643
4.92907e-05
0.000248841
4.64877e-05
0.000226345
4.38496e-05
0.00020508
4.13681e-05
0.000184975
3.90359e-05
0.000165962
3.68445e-05
0.000147976
3.47855e-05
0.000130958
3.28504e-05
0.000114853
3.10306e-05
9.96092e-05
2.93158e-05
8.51849e-05
2.76898e-05
7.15531e-05
2.61226e-05
5.87149e-05
2.45608e-05
4.67146e-05
2.29229e-05
3.56523e-05
2.11024e-05
2.56878e-05
1.89861e-05
1.70309e-05
1.64782e-05
9.91929e-06
1.35255e-05
4.58756e-06
1.0133e-05
1.23504e-06
6.36714e-06
2.34376e-06
0.000296584
7.87481e-05
-0.000323049
0.00027157
7.43041e-05
0.000247918
7.014e-05
0.000225553
6.62148e-05
0.000204403
6.25183e-05
0.000184398
5.90408e-05
0.000165472
5.57701e-05
0.000147564
5.26941e-05
0.000130613
4.98007e-05
0.000114566
4.70775e-05
9.93731e-05
4.45091e-05
8.49918e-05
4.20712e-05
7.13963e-05
3.9718e-05
5.85885e-05
3.73687e-05
4.66137e-05
3.48977e-05
3.55728e-05
3.21433e-05
2.56271e-05
2.89318e-05
1.6987e-05
2.51183e-05
9.89082e-06
2.06217e-05
4.57253e-06
1.54513e-05
1.23008e-06
9.70959e-06
3.57384e-06
0.000294842
0.000104903
-0.000320997
0.000270099
9.90475e-05
0.000246676
9.35624e-05
0.000224508
8.83831e-05
0.000203526
8.34999e-05
0.000183666
7.89011e-05
0.000164864
7.45717e-05
0.000147062
7.04965e-05
0.000130202
6.66604e-05
0.000114232
6.30473e-05
9.91041e-05
5.96374e-05
8.47769e-05
5.63984e-05
7.12256e-05
5.32692e-05
5.84536e-05
5.01406e-05
4.65072e-05
4.68441e-05
3.54895e-05
4.31609e-05
2.55629e-05
3.88584e-05
1.69404e-05
3.37408e-05
9.86016e-06
2.77019e-05
4.55638e-06
2.07551e-05
1.22496e-06
1.3041e-05
4.7988e-06
0.000292786
0.000130655
-0.000318538
0.000268391
0.000123443
0.000245262
0.000116691
0.000223344
0.000110301
0.000202575
0.000104269
0.000182896
9.85804e-05
0.000164248
9.32196e-05
0.000146576
8.81691e-05
0.000129825
8.3411e-05
0.000113946
7.89265e-05
9.88916e-05
7.46916e-05
8.46237e-05
7.06663e-05
7.11183e-05
6.67746e-05
5.83798e-05
6.28791e-05
4.64563e-05
5.87676e-05
3.5453e-05
5.41643e-05
2.55354e-05
4.87761e-05
1.69188e-05
4.23575e-05
9.84449e-06
3.47762e-05
4.54675e-06
2.60528e-05
1.22137e-06
1.63664e-05
6.02017e-06
0.000290816
0.000155946
-0.000316107
0.000266814
0.000147445
0.000244014
0.000139491
0.000222372
0.000131943
0.000201835
0.000124806
0.000182348
0.000118067
0.000163859
0.000111708
0.000146317
0.000105711
0.000129672
0.000100056
0.000113876
9.47225e-05
9.88853e-05
8.96822e-05
8.46629e-05
8.48888e-05
7.11867e-05
8.02508e-05
5.84619e-05
7.56039e-05
4.6539e-05
7.06905e-05
3.5525e-05
6.51783e-05
2.55903e-05
5.87108e-05
1.6954e-05
5.09937e-05
9.86258e-06
4.18677e-05
4.553e-06
3.13624e-05
1.2217e-06
1.96977e-05
7.24187e-06
0.000289144
0.000180735
-0.000313933
0.000265565
0.000171024
0.000243112
0.000161944
0.000221756
0.000153299
0.000201452
0.00014511
0.000182155
0.000137364
0.000163819
0.000130044
0.000146397
0.000123133
0.000129844
0.00011661
0.000114115
0.000110451
9.91693e-05
0.000104628
8.49715e-05
9.90866e-05
7.15e-05
9.37222e-05
5.87623e-05
8.83416e-05
4.68084e-05
8.26444e-05
3.57507e-05
7.6236e-05
2.57621e-05
6.86994e-05
1.70715e-05
5.96843e-05
9.93012e-06
4.9009e-05
4.58296e-06
3.67096e-05
1.22869e-06
2.3052e-05
8.47056e-06
0.000287951
0.000204994
-0.000312211
0.000264812
0.000194164
0.000242714
0.000184041
0.000221646
0.000174368
0.000201571
0.000165184
0.000182454
0.000156481
0.000164254
0.000148244
0.000146932
0.000140455
0.000130446
0.000133095
0.000114756
0.000126141
9.9825e-05
0.000119559
8.56182e-05
0.000113293
7.21168e-05
0.000107224
5.93268e-05
0.000101132
4.73022e-05
9.4669e-05
3.61555e-05
8.73827e-05
2.60702e-05
7.87848e-05
1.72807e-05
6.84738e-05
1.00527e-05
5.6237e-05
4.6373e-06
4.21249e-05
1.24172e-06
2.64475e-05
9.71228e-06
0.000287369
0.000228708
-0.000311082
0.00026467
0.000216863
0.000242918
0.000205793
0.000222118
0.000195168
0.00020225
0.000185052
0.000183288
0.000175444
0.000165198
0.000166333
0.000147949
0.000157705
0.000131503
0.000149541
0.000115825
0.000141819
0.000100878
0.000134506
8.66317e-05
0.00012754
7.30655e-05
0.00012079
6.01871e-05
0.00011401
4.80485e-05
0.000106808
3.67689e-05
9.86623e-05
2.65362e-05
8.90174e-05
1.76017e-05
7.74084e-05
1.02419e-05
6.35968e-05
4.72478e-06
4.76421e-05
1.26408e-06
2.99082e-05
1.09764e-05
0.000287435
0.000251862
-0.000310589
0.000265182
0.000239115
0.000243777
0.000227198
0.000223242
0.000215703
0.000203567
0.000204728
0.000184735
0.000194276
0.000166726
0.000184342
0.000149513
0.000174918
0.000133067
0.000165987
0.000117356
0.00015753
0.000102348
0.000149514
8.80151e-05
0.000141873
7.4337e-05
0.000134468
6.13202e-05
0.000127027
4.90191e-05
0.000119109
3.7555e-05
0.000110126
2.71284e-05
9.94441e-05
1.80027e-05
8.6534e-05
1.04755e-05
7.1124e-05
4.82863e-06
5.3289e-05
1.28893e-06
3.34479e-05
1.22653e-05
0.00028814
0.000274448
-0.000310726
0.000266312
0.000260944
0.000245222
0.000248288
0.000224916
0.000236008
0.000205403
0.000224241
0.000186676
0.000213002
0.000168724
0.000202295
0.000151526
0.000192116
0.000135057
0.000182456
0.000119292
0.000173296
0.000104201
0.000164605
8.97564e-05
0.000156318
7.59389e-05
0.000148285
6.2753e-05
0.000140213
5.0251e-05
0.000131611
3.8559e-05
0.000121818
2.78875e-05
0.000110116
1.85212e-05
9.59003e-05
1.07799e-05
7.88653e-05
4.96809e-06
5.91007e-05
1.32509e-06
3.70909e-05
1.35904e-05
0.000289506
0.000296435
-0.000311493
0.000268127
0.000282323
0.000247366
0.000269049
0.000227282
0.000256092
0.000207899
0.000243624
0.000189233
0.000231668
0.000171285
0.000220243
0.000154044
0.000209357
0.000137494
0.000199005
0.000121615
0.000189175
0.00010638
0.000179839
9.17656e-05
0.000170932
7.77509e-05
0.0001623
6.43399e-05
0.000153624
5.1586e-05
0.000144365
3.96205e-05
0.000133784
2.86688e-05
0.000121067
1.90365e-05
0.000105533
1.10685e-05
8.68333e-05
5.08959e-06
6.50797e-05
1.35074e-06
4.08298e-05
1.49411e-05
0.000291345
0.000317832
-0.000312742
0.000270342
0.000303326
0.000249864
0.000289526
0.000229978
0.000275979
0.00021072
0.000262881
0.000192115
0.000250273
0.000174172
0.000238187
0.000156889
0.00022664
0.000140256
0.000215638
0.000124259
0.000205172
0.000108876
0.000195222
9.40843e-05
0.000185725
7.98625e-05
0.000176522
6.6211e-05
0.000167275
5.31804e-05
0.000157395
4.09051e-05
0.000146059
2.96247e-05
0.000132348
1.96723e-05
0.000115485
1.14272e-05
9.50784e-05
5.24423e-06
7.12626e-05
1.38766e-06
4.46864e-05
1.63288e-05
0.00029355
0.000338424
-0.000314142
0.000273027
0.000323849
0.000252853
0.0003097
0.000233133
0.000295698
0.000213945
0.00028207
0.000195333
0.000268884
0.000177325
0.000256195
0.000159931
0.000244034
0.00014315
0.000232418
0.000126973
0.000221349
0.000111383
0.000210812
9.63584e-05
0.000200749
8.18794e-05
0.000191001
6.79439e-05
0.000181211
5.46017e-05
0.000170738
4.19941e-05
0.000158667
3.03801e-05
0.000143962
2.01247e-05
0.00012574
1.16412e-05
0.000103562
5.30721e-06
7.75966e-05
1.38799e-06
4.86056e-05
1.77168e-05
0.000296056
0.000358279
-0.00031591
0.000275868
0.000344037
0.000255997
0.000329571
0.000236481
0.000315214
0.000217408
0.000301144
0.000198835
0.000287457
0.000180799
0.000274231
0.00016332
0.000261513
0.000146406
0.000249332
0.000130055
0.000237701
0.000114253
0.000226613
9.89822e-05
0.00021602
8.42188e-05
0.000205764
6.99587e-05
0.000195471
5.62519e-05
0.000184444
4.32503e-05
0.000171668
3.12367e-05
0.000155975
2.06122e-05
0.000136365
1.18321e-05
0.000112342
5.31048e-06
8.41182e-05
1.33329e-06
5.25828e-05
1.90501e-05
1.24393e-05
0.000360764
-1.49247e-05
9.89007e-06
0.000346586
7.45077e-06
0.000332011
5.03169e-06
0.000317633
2.64274e-06
0.000303533
2.79013e-07
0.000289821
-2.0584e-06
0.000276568
-4.36453e-06
0.000263819
-6.6322e-06
0.0002516
-8.84977e-06
0.000239919
-1.09913e-05
0.000228755
-1.29937e-05
0.000218022
-1.47227e-05
0.000207493
-1.59522e-05
0.0001967
-1.63872e-05
0.000184879
-1.57513e-05
0.000171032
-1.39129e-05
0.000154137
-1.09978e-05
0.00013345
-7.42882e-06
0.000108773
-3.87628e-06
8.05657e-05
-1.14046e-06
4.98469e-05
1.79096e-05
7.22856e-06
0.000363554
-1.00186e-05
4.57185e-06
0.000349243
1.95491e-06
0.000334628
-6.0482e-07
0.000320193
-3.09125e-06
0.000306019
-5.50435e-06
0.000292234
-7.839e-06
0.000278903
-1.00901e-05
0.00026607
-1.22504e-05
0.00025376
-1.43053e-05
0.000241974
-1.62189e-05
0.000230668
-1.79073e-05
0.000219711
-1.92101e-05
0.000208796
-1.98837e-05
0.000197374
-1.96445e-05
0.00018464
-1.82639e-05
0.000169652
-1.56867e-05
0.00015156
-1.2119e-05
0.000129882
-8.0439e-06
0.000104698
-4.15595e-06
7.66777e-05
-1.23382e-06
4.69248e-05
1.66758e-05
1.95664e-06
0.000366561
-4.96403e-06
-8.10827e-07
0.000352011
-3.52958e-06
0.000337346
-6.14054e-06
0.000322804
-8.64181e-06
0.00030852
-1.10303e-05
0.000294622
-1.33014e-05
0.000281174
-1.54509e-05
0.00026822
-1.74707e-05
0.00025578
-1.93407e-05
0.000243844
-2.10099e-05
0.000232338
-2.23696e-05
0.00022107
-2.32318e-05
0.000209658
-2.33399e-05
0.000197482
-2.2428e-05
0.000183728
-2.03221e-05
0.000167546
-1.70467e-05
0.000148285
-1.28896e-05
0.000125725
-8.39158e-06
0.0001002
-4.26155e-06
7.25477e-05
-1.24491e-06
4.39082e-05
1.54309e-05
-3.32449e-06
0.000369683
2.02495e-07
-6.19003e-06
0.000354876
-8.96183e-06
0.000340118
-1.15839e-05
0.000325426
-1.4063e-05
0.000310999
-1.63937e-05
0.000296953
-1.85731e-05
0.000283353
-2.05973e-05
0.000270244
-2.24561e-05
0.000257639
-2.41199e-05
0.000245507
-2.55183e-05
0.000233736
-2.65147e-05
0.000222067
-2.68963e-05
0.00021004
-2.64025e-05
0.000196988
-2.47978e-05
0.000182123
-2.19746e-05
0.000164723
-1.80432e-05
0.000144353
-1.33706e-05
0.000121052
-8.54262e-06
9.5372e-05
-4.26306e-06
6.82682e-05
-1.22376e-06
4.08689e-05
1.42071e-05
-8.7201e-06
0.00037286
5.54353e-06
-1.16419e-05
0.000357798
-1.4416e-05
0.000342892
-1.70074e-05
0.000328018
-1.94259e-05
0.000313418
-2.16661e-05
0.000299193
-2.37272e-05
0.000285414
-2.56045e-05
0.000272121
-2.72826e-05
0.000259317
-2.87178e-05
0.000246943
-2.98162e-05
0.000234834
-3.04119e-05
0.000222662
-3.02736e-05
0.000209902
-2.91463e-05
0.000195861
-2.68386e-05
0.000179816
-2.33169e-05
0.000161201
-1.87794e-05
0.000139816
-1.3662e-05
0.000115935
-8.58053e-06
9.02905e-05
-4.21471e-06
6.39023e-05
-1.19168e-06
3.78458e-05
1.30154e-05
-1.43677e-05
0.00037605
1.11777e-05
-1.73009e-05
0.000360731
-2.00356e-05
0.000345627
-2.25601e-05
0.000330542
-2.48838e-05
0.000315741
-2.70039e-05
0.000301314
-2.89207e-05
0.000287331
-3.06275e-05
0.000273828
-3.20996e-05
0.000260789
-3.32754e-05
0.000248118
-3.40326e-05
0.000235591
-3.4179e-05
0.000222809
-3.34695e-05
0.000209192
-3.16701e-05
0.000194061
-2.8642e-05
0.000176788
-2.44363e-05
0.000156995
-1.93323e-05
0.000134712
-1.3828e-05
0.000110431
-8.54829e-06
8.50108e-05
-4.13909e-06
5.94931e-05
-1.15412e-06
3.48609e-05
1.18613e-05
-2.04178e-05
0.000379209
1.72589e-05
-2.33115e-05
0.000363625
-2.5965e-05
0.00034828
-2.83848e-05
0.000332962
-3.05793e-05
0.000317936
-3.25492e-05
0.000303283
-3.42945e-05
0.000289077
-3.58034e-05
0.000275337
-3.70382e-05
0.000262024
-3.7913e-05
0.000248993
-3.82765e-05
0.000235955
-3.79104e-05
0.000222443
-3.65694e-05
0.000207851
-3.4048e-05
0.00019154
-3.02792e-05
0.000173019
-2.53946e-05
0.000152111
-1.97592e-05
0.000129076
-1.39099e-05
0.000104581
-8.47514e-06
7.95761e-05
-4.04895e-06
5.50669e-05
-1.11507e-06
3.1927e-05
1.07462e-05
-2.70812e-05
0.000382295
2.39946e-05
-2.9887e-05
0.000366431
-3.24181e-05
0.000350811
-3.46936e-05
0.000335237
-3.67222e-05
0.000319965
-3.85076e-05
0.000305069
-4.00475e-05
0.000290617
-4.13218e-05
0.000276611
-4.22735e-05
0.000262975
-4.27891e-05
0.000249509
-4.2685e-05
0.000235851
-4.1726e-05
0.000221484
-3.96726e-05
0.000205798
-3.63702e-05
0.000188238
-3.18233e-05
0.000168472
-2.62599e-05
0.000146547
-2.01086e-05
0.000122925
-1.39473e-05
9.84199e-05
-8.38096e-06
7.40098e-05
-3.95517e-06
5.06412e-05
-1.07633e-06
2.90482e-05
9.6699e-06
-3.45541e-05
0.00038526
3.15892e-05
-3.72189e-05
0.000369096
-3.95816e-05
0.000353174
-4.16692e-05
0.000337325
-4.34913e-05
0.000321787
-4.50529e-05
0.00030663
-4.63469e-05
0.00029191
-4.73387e-05
0.000277603
-4.79474e-05
0.000263584