/*--------------------------------*- C++ -*----------------------------------*\
| =========                 |                                                 |
| \\      /  F ield         | OpenFOAM Extend Project: Open source CFD        |
|  \\    /   O peration     | Version:  1.6-ext                               |
|   \\  /    A nd           | Web:      www.extend-project.de                 |
|    \\/     M anipulation  |                                                 |
\*---------------------------------------------------------------------------*/
FoamFile
{
    version     2.0;
    format      ascii;
    class       volVectorField;
    location    "0.75";
    object      U;
}
// * * * * * * * * * * * * * * * * * * * * * * * * * * * * * * * * * * * * * //

dimensions      [0 1 -1 0 0 0 0];

internalField   nonuniform List<vector> 
20940
(
(1.84965 0.397323 0)
(1.88932 0.4174 0)
(1.92689 0.436761 0)
(1.96149 0.454359 0)
(1.99286 0.470405 6.1499e-24)
(2.01933 0.483774 1.75151e-20)
(2.03795 0.493359 -9.82507e-21)
(2.04389 0.497214 0)
(2.03076 0.493105 8.19637e-21)
(1.99145 0.478788 -1.81848e-20)
(1.91974 0.452722 0)
(1.81202 0.414671 1.29724e-20)
(1.66874 0.366065 -6.31435e-21)
(1.49477 0.309894 -2.35327e-20)
(1.29859 0.250169 0)
(1.09066 0.191155 1.91792e-20)
(0.881519 0.13666 -1.0217e-20)
(0.680274 0.0895899 -5.71073e-21)
(0.493752 0.0517606 1.15559e-20)
(0.326258 0.0239469 -5.99298e-21)
(0.17982 0.00662905 0)
(0.0546504 0.000491002 0)
(1.87657 0.373993 7.85204e-21)
(1.91497 0.39292 0)
(1.95094 0.410474 8.70111e-21)
(1.98337 0.426292 -1.18183e-20)
(2.01144 0.440037 -1.94875e-21)
(2.03265 0.450506 7.12152e-21)
(2.04298 0.456287 2.04712e-20)
(2.0367 0.455344 1.3832e-20)
(2.00703 0.445608 -1.5058e-20)
(1.94746 0.425394 -9.27759e-21)
(1.85349 0.394058 0)
(1.72421 0.352416 0)
(1.563 0.302797 -7.6964e-21)
(1.37721 0.248657 6.96976e-20)
(1.17671 0.193914 -3.3444e-20)
(0.972043 0.14224 2.79149e-20)
(0.772819 0.0965542 -1.98058e-20)
(0.58662 0.0588118 4.9423e-21)
(0.418612 0.0299916 2.24199e-20)
(0.271647 0.0102434 -1.72375e-20)
(0.146694 -0.000371761 -1.19012e-20)
(0.043363 -0.00141132 0)
(1.90128 0.350624 -1.13262e-20)
(1.93808 0.368473 2.76696e-20)
(1.97191 0.384327 -5.80779e-21)
(2.0013 0.398377 -2.16801e-20)
(2.02466 0.409719 2.98877e-20)
(2.03847 0.417065 -1.70096e-20)
(2.03769 0.41876 -4.34302e-20)
(2.01592 0.412839 -2.78852e-20)
(1.96661 0.397613 3.03608e-20)
(1.8846 0.372147 5.52325e-20)
(1.76783 0.33678 4.37476e-20)
(1.61838 0.293263 -7.09092e-20)
(1.44242 0.244536 -6.88313e-20)
(1.24911 0.194147 5.87973e-20)
(1.04884 0.145589 0)
(0.8515 0.101755 0)
(0.665275 0.0646562 3.74616e-20)
(0.496026 0.0354001 1.00611e-20)
(0.347308 0.014298 -4.23071e-20)
(0.220685 0.00104485 0)
(0.116257 -0.00459297 -2.36018e-20)
(0.0331773 -0.00236551 3.86002e-20)
(1.92484 0.32759 2.07452e-20)
(1.95957 0.344432 3.11072e-20)
(1.99045 0.358626 0)
(2.01549 0.370813 0)
(2.03207 0.379515 2.42209e-21)
(2.03559 0.383395 -1.70701e-20)
(2.02014 0.38068 2.22864e-20)
(1.97923 0.369688 0)
(1.90729 0.349332 -6.51443e-20)
(1.80139 0.319578 3.40471e-20)
(1.66245 0.281706 -4.26537e-20)
(1.49556 0.238183 6.96886e-20)
(1.3091 0.192192 -5.31121e-20)
(1.11317 0.147012 2.84688e-20)
(0.917813 0.105467 6.33913e-20)
(0.731611 0.0695882 -6.69854e-20)
(0.560983 0.0405446 5.45732e-20)
(0.410048 0.018746 -1.1501e-19)
(0.280889 0.00400872 -8.19004e-20)
(0.173999 -0.00427194 6.39167e-20)
(0.0888086 -0.00650981 -1.13735e-20)
(0.0241591 -0.00257087 0)
(1.94696 0.304964 -2.7025e-20)
(1.97898 0.320797 3.2283e-20)
(2.00575 0.333284 4.35431e-20)
(2.02454 0.343409 -4.81784e-20)
(2.03157 0.349151 -1.21955e-21)
(2.02122 0.349215 3.62696e-20)
(1.98722 0.341899 -9.27853e-20)
(1.92373 0.326038 5.16381e-20)
(1.82714 0.301332 6.41605e-20)
(1.69744 0.268674 -3.4221e-20)
(1.53871 0.230116 4.27641e-20)
(1.35862 0.188496 -8.91068e-20)
(1.16688 0.146865 4.93633e-20)
(0.973544 0.107945 2.81306e-20)
(0.787498 0.0737613 0)
(0.615585 0.0455236 6.52017e-20)
(0.46237 0.023692 -6.85666e-20)
(0.330351 0.00815607 9.28277e-20)
(0.220378 -0.0015953 -5.80807e-20)
(0.132116 -0.00633269 9.48984e-22)
(0.0645364 -0.00655682 -2.07086e-20)
(0.0163111 -0.00219131 0)
(1.96715 0.282817 -2.59819e-20)
(1.99546 0.297591 -9.10376e-22)
(2.0164 0.30823 -4.37178e-20)
(2.02635 0.315982 0)
(2.02029 0.318386 -3.15783e-20)
(1.99203 0.314355 -3.99998e-20)
(1.93568 0.302488 8.91782e-20)
(1.84707 0.282354 0)
(1.72541 0.254517 -2.01627e-21)
(1.57394 0.220678 3.29867e-20)
(1.39961 0.183352 3.98316e-20)
(1.21179 0.145364 4.30468e-20)
(1.02045 0.109314 -4.91868e-20)
(0.834681 0.0771977 -1.0669e-19)
(0.661659 0.0502485 5.55639e-20)
(0.506309 0.0289716 6.11018e-20)
(0.371452 0.0132954 0)
(0.258212 0.00276351 3.42628e-20)
(0.166487 -0.00331885 -1.89225e-20)
(0.0953636 -0.00578419 9.78634e-20)
(0.0435368 -0.00515498 -5.967e-20)
(0.00963065 -0.00137775 6.76797e-20)
(1.98497 0.260959 3.15957e-20)
(2.008 0.27449 3.678e-20)
(2.0206 0.283015 4.34213e-20)
(2.01821 0.28803 5.48869e-20)
(1.9949 0.286793 0)
(1.94464 0.278636 0)
(1.8629 0.262685 -4.53446e-20)
(1.74823 0.239362 -5.22782e-20)
(1.60313 0.210023 -6.04955e-20)
(1.43395 0.176904 -6.91335e-20)
(1.24967 0.142606 -7.7288e-20)
(1.0602 0.1096 8.17066e-20)
(0.874774 0.0798372 9.36107e-20)
(0.700817 0.0545582 2.01381e-21)
(0.543548 0.0343067 -1.08389e-19)
(0.406048 0.0190542 0)
(0.289646 0.00837529 -3.08147e-20)
(0.194403 0.00161819 -6.69005e-20)
(0.119546 -0.00198454 0)
(0.0638094 -0.00325555 0)
(0.0257644 -0.00269894 3.98631e-20)
(0.00407151 -0.000266304 -6.43443e-20)
(1.9989 0.239328 -5.88855e-20)
(2.01438 0.251366 -1.13043e-19)
(2.01534 0.257463 0)
(1.99648 0.259386 -1.10413e-19)
(1.95163 0.254374 0)
(1.87596 0.242402 -1.57583e-19)
(1.76745 0.22328 4.26963e-20)
(1.62798 0.198256 1.03321e-19)
(1.46335 0.169241 0)
(1.28221 0.138644 6.51807e-20)
(1.09442 0.108797 7.44558e-20)
(0.909304 0.0815933 -4.11928e-20)
(0.73453 0.0582729 -8.96995e-20)
(0.575551 0.0394095 9.58247e-20)
(0.435656 0.0250179 -1.05492e-19)
(0.316332 0.0147137 1.69794e-19)
(0.217747 0.00787218 -8.86807e-20)
(0.139214 0.00376191 -9.59449e-20)
(0.0795476 0.00161844 1.34001e-19)
(0.0373101 0.000672256 -3.46443e-20)
(0.0110619 0.000458139 3.76906e-20)
(-0.000443969 0.00102526 7.71605e-20)
(2.00768 0.217366 0)
(2.01231 0.227525 7.58598e-20)
(1.99745 0.230858 4.78111e-20)
(1.95762 0.229538 5.54523e-20)
(1.88744 0.221027 1.3512e-19)
(1.7845 0.206083 8.11004e-20)
(1.65006 0.185207 2.11855e-21)
(1.48946 0.16027 -5.0981e-20)
(1.31107 0.133395 0)
(1.12469 0.106808 -6.46608e-20)
(0.939786 0.0823297 -7.16336e-20)
(0.764221 0.0611932 7.72246e-20)
(0.603668 0.0439982 0)
(0.461593 0.0308027 0)
(0.339606 0.0212693 -4.93141e-20)
(0.237948 0.0148142 5.49153e-20)
(0.15597 0.0107323 0)
(0.0925201 0.00829145 1.23062e-19)
(0.0462068 0.00677559 -1.28365e-19)
(0.0155553 0.00548982 3.45613e-20)
(-0.000810095 0.0040149 1.4192e-19)
(-0.0040148 0.00239955 -1.62919e-19)
(2.00784 0.195128 0)
(1.99774 0.203095 -4.17594e-20)
(1.96263 0.203528 -5.0812e-20)
(1.89795 0.199089 -3.53276e-21)
(1.8003 0.187731 -1.34274e-21)
(1.67062 0.171022 7.85468e-20)
(1.51371 0.150014 -8.6211e-20)
(1.33776 0.126879 -1.99726e-19)
(1.15255 0.103602 1.65269e-19)
(0.967693 0.0819673 -6.38803e-20)
(0.791278 0.063179 1.35616e-19)
(0.629193 0.0478607 0)
(0.485071 0.0361107 8.27462e-20)
(0.360625 0.0276408 -8.84832e-20)
(0.256147 0.0219157 4.8962e-20)
(0.171004 0.0182717 0)
(0.104038 0.0160031 -5.68187e-20)
(0.0538607 0.0144236 1.16706e-19)
(0.0190258 0.0128878 0)
(-0.00188733 0.0107817 0)
(-0.0101485 0.00773169 0)
(-0.00675351 0.0037817 1.09542e-21)
(1.99764 0.171586 -6.55649e-20)
(1.96798 0.177103 8.34857e-20)
(1.90842 0.174753 0)
(1.8162 0.16784 -5.88384e-20)
(1.69109 0.154877 -1.88717e-21)
(1.53773 0.138046 7.75767e-20)
(1.36396 0.11867 -8.37587e-20)
(1.17965 0.098863 1.78688e-22)
(0.994594 0.08022 5.26681e-20)
(0.817157 0.0639634 -1.09251e-21)
(0.653459 0.0507219 0)
(0.507304 0.0406379 0)
(0.380499 0.0334738 0)
(0.273373 0.0287478 0)
(0.185292 0.0258461 9.33208e-20)
(0.115077 0.0241056 -4.9831e-20)
(0.0613134 0.0228676 -5.4033e-20)
(0.0225448 0.0215148 5.56706e-20)
(-0.00262847 0.0194795 0)
(-0.0155208 0.0162277 1.25634e-19)
(-0.0172788 0.0114281 -1.29978e-19)
(-0.00877686 0.00511671 2.82489e-20)
(1.97104 0.147862 4.07223e-21)
(1.91841 0.151026 2.50476e-21)
(1.83173 0.146422 0)
(1.71195 0.13794 0)
(1.56232 0.124675 6.59836e-20)
(1.39087 0.109169 0)
(1.20734 0.0927362 8.52603e-20)
(1.02191 0.0771572 -9.5615e-20)
(0.843226 0.0635155 0)
(0.677738 0.0524834 -5.88887e-20)
(0.529444 0.0442251 0)
(0.400266 0.0385518 0)
(0.290564 0.0350322 0)
(0.199689 0.0331034 -8.20175e-20)
(0.126427 0.0321491 -8.99804e-20)
(0.069326 0.0315506 -9.72143e-20)
(0.0268966 0.0307176 5.13656e-20)
(-0.00227282 0.029108 -1.09053e-19)
(-0.0194742 0.0262296 5.6759e-20)
(-0.0258905 0.0216228 0)
(-0.0225447 0.0149953 -1.26385e-19)
(-0.0102061 0.00637502 2.61594e-20)
(1.92982 0.121998 -7.08925e-20)
(1.84963 0.123164 2.26562e-21)
(1.73507 0.117313 0)
(1.58973 0.108654 0)
(1.4205 0.0968002 0)
(1.23769 0.0841552 0)
(1.05154 0.0718213 -8.34405e-20)
(0.871261 0.0610679 0)
(0.70362 0.0524853 0)
(0.552898 0.0462975 0)
(0.421147 0.042355 -1.25306e-19)
(0.308773 0.0402822 6.77388e-20)
(0.215106 0.0395692 0)
(0.138883 0.0396501 1.55112e-21)
(0.0785973 0.0399509 0)
(0.0327147 0.0399189 -4.63235e-20)
(-0.0002074 0.0390375 1.48822e-19)
(-0.0214692 0.0368374 1.05392e-19)
(-0.032226 0.0328961 -1.11316e-19)
(-0.0335234 0.0268216 0)
(-0.0262699 0.0183602 -3.00864e-20)
(-0.0111509 0.00753668 -2.6572e-20)
(1.86384 0.0983489 0)
(1.75874 0.0981906 -1.73266e-19)
(1.6181 0.0919183 9.79025e-20)
(1.45254 0.084101 -1.15068e-19)
(1.27076 0.0745642 0)
(1.08413 0.0653778 7.33669e-20)
(0.902092 0.0573507 1.64042e-19)
(0.73205 0.0512052 -9.07876e-20)
(0.578598 0.047123 -1.01202e-19)
(0.444012 0.0449987 4.97684e-24)
(0.328771 0.044493 -6.15634e-20)
(0.232204 0.045144 1.9807e-19)
(0.153004 0.0464315 0)
(0.0896003 0.0478241 7.84116e-20)
(0.0404002 0.0488047 -1.67262e-19)
(0.00391802 0.0488855 8.94953e-20)
(-0.0211713 0.0476153 -4.75413e-20)
(-0.0360249 0.0445864 -5.15576e-20)
(-0.0416549 0.0394356 1.07801e-19)
(-0.0389768 0.0318301 0)
(-0.0287976 0.0215523 1.48373e-19)
(-0.011734 0.0086263 -1.0195e-19)
(1.78976 0.0712163 0)
(1.65417 0.0705741 1.75235e-19)
(1.49177 0.066162 -1.97749e-19)
(1.31142 0.0604203 -1.01583e-21)
(1.12371 0.0547261 0)
(0.939395 0.0499698 -7.21931e-20)
(0.766202 0.0467249 -8.05155e-20)
(0.609275 0.045164 1.78127e-19)
(0.471142 0.0451873 -9.78439e-20)
(0.352431 0.0465125 7.16841e-23)
(0.252501 0.0487474 -1.59521e-21)
(0.170007 0.0514458 6.38335e-20)
(0.103307 0.0541405 0)
(0.0507304 0.0563647 7.56267e-20)
(0.0107223 0.0576652 -1.61062e-19)
(-0.0180906 0.0576112 8.66979e-20)
(-0.0368888 0.0558018 4.69225e-20)
(-0.0466814 0.0518749 5.01011e-20)
(-0.048343 0.0455126 -2.0856e-19)
(-0.0426695 0.0364322 0)
(-0.0303799 0.0244526 2.83965e-20)
(-0.0120386 0.00960669 -1.24631e-19)
(1.64008 0.0514507 0)
(1.47403 0.0482157 -4.45729e-20)
(1.29194 0.0458276 5.31733e-20)
(1.10489 0.0431117 1.81685e-19)
(0.922207 0.0416531 -1.36249e-19)
(0.751535 0.0413578 7.55102e-20)
(0.597437 0.042428 8.44683e-20)
(0.462201 0.0446782 3.62409e-22)
(0.346215 0.0478636 5.61736e-22)
(0.248674 0.0516576 0)
(0.168106 0.0556958 -6.11459e-20)
(0.102771 0.0595913 6.64687e-20)
(0.0509244 0.0629451 7.14081e-20)
(0.0109593 0.0653566 0)
(-0.018525 0.0664323 8.34137e-20)
(-0.038715 0.0657963 0)
(-0.0506042 0.063102 4.67916e-20)
(-0.0550307 0.0580438 5.01893e-20)
(-0.0527211 0.0503676 8.49274e-22)
(-0.044345 0.0398697 0)
(-0.0305237 0.026445 -2.86712e-20)
(-0.0117662 0.010176 4.70605e-22)
(1.38571 0.0295653 0)
(1.20183 0.0288213 0)
(1.01869 0.0308569 0)
(0.843508 0.0325165 0)
(0.682486 0.0356795 -7.05895e-20)
(0.538983 0.0393991 1.5584e-19)
(0.414309 0.0438504 -1.71788e-19)
(0.308218 0.0487345 3.85868e-22)
(0.219518 0.053852 -2.0778e-19)
(0.146532 0.0589426 -6.96366e-22)
(0.0874419 0.0637273 6.1524e-20)
(0.0404946 0.0679007 0)
(0.00411846 0.0711392 -7.25194e-20)
(-0.0230338 0.073109 0)
(-0.0420854 0.0734788 0)
(-0.0539606 0.0719333 0)
(-0.0594234 0.068188 -4.73357e-20)
(-0.0591183 0.0620038 -5.01419e-20)
(-0.0536112 0.0531979 2.07978e-19)
(-0.0434304 0.0416464 0)
(-0.0290727 0.0273181 1.12527e-19)
(-0.0109558 0.0103274 2.44217e-20)
(1.10051 0.0174504 -8.92922e-20)
(0.921739 0.0197964 0)
(0.757089 0.0257439 1.15688e-19)
(0.607008 0.0306692 6.48951e-20)
(0.475347 0.0367871 7.25519e-20)
(0.361939 0.0428464 -7.92214e-20)
(0.266253 0.049081 0)
(0.18673 0.0552127 9.64153e-20)
(0.121612 0.0611091 0)
(0.069062 0.0665731 0)
(0.0273721 0.0713897 2.97786e-22)
(-0.00496527 0.0753122 0)
(-0.0292289 0.0780692 4.22531e-22)
(-0.0464752 0.0793751 -7.79945e-20)
(-0.057564 0.0789436 4.15675e-20)
(-0.0631942 0.0765046 0)
(-0.0639418 0.0718204 -9.41023e-20)
(-0.0602956 0.0647011 -9.2533e-22)
(-0.0526893 0.0550166 5.12055e-20)
(-0.0415322 0.0427008 1.34389e-19)
(-0.0272141 0.0277723 -1.11137e-19)
(-0.010073 0.0103608 0)
(0.820632 0.0120842 9.36431e-20)
(0.663671 0.0181901 0)
(0.527686 0.026661 -5.83054e-20)
(0.407699 0.0338038 -1.31912e-19)
(0.306204 0.0414058 -7.34123e-20)
(0.22097 0.0484862 8.12018e-20)
(0.150761 0.0552837 4.67913e-22)
(0.0936087 0.0616261 -9.75381e-20)
(0.0477706 0.0674544 -5.33192e-20)
(0.0115954 0.0726377 0)
(-0.0163424 0.0770153 1.89616e-19)
(-0.0372494 0.0803841 -1.36022e-19)
(-0.0521182 0.0825086 1.20088e-22)
(-0.0617532 0.0831338 3.92799e-20)
(-0.0668012 0.0820014 -4.20427e-20)
(-0.0677847 0.0788686 8.89415e-20)
(-0.0651343 0.0735252 -1.4087e-19)
(-0.0592165 0.06581 4.88089e-20)
(-0.0503579 0.0556218 0)
(-0.0388663 0.0429258 -1.07102e-19)
(-0.0250382 0.0277642 1.1004e-19)
(-0.00913793 0.0102653 0)
(0.569181 0.01312 -9.5163e-20)
(0.442497 0.0220575 0)
(0.337406 0.0312737 0)
(0.246972 0.0392556 0)
(0.172668 0.0469776 7.44158e-20)
(0.111609 0.053967 8.20443e-20)
(0.0624645 0.060423 0)
(0.0233743 0.066283 0)
(-0.00714538 0.0715337 2.16187e-19)
(-0.030442 0.0760886 -1.17241e-19)
(-0.0476371 0.0798183 0)
(-0.0596606 0.0825446 0)
(-0.0672669 0.0840527 -1.1045e-19)
(-0.071062 0.0841058 1.57412e-19)
(-0.0715313 0.0824627 -4.17282e-20)
(-0.0690664 0.0788966 0)
(-0.0639896 0.0732131 -1.87117e-19)
(-0.0565752 0.0652648 -1.36413e-22)
(-0.0470657 0.0549628 1.02056e-19)
(-0.0356862 0.0422829 7.92127e-20)
(-0.0226553 0.0272689 -1.08962e-19)
(-0.00817334 0.01003 2.27438e-20)
(0.357826 0.017633 0)
(0.262488 0.027695 -5.51459e-20)
(0.185714 0.036498 -4.69468e-22)
(0.121211 0.0442116 6.78495e-20)
(0.0695961 0.0512168 7.52492e-20)
(0.0282197 0.0574472 6.48397e-23)
(-0.00411073 0.0630637 3.47862e-22)
(-0.0289386 0.0680837 -9.97865e-20)
(-0.0474452 0.0725182 5.45208e-20)
(-0.0606801 0.0763079 -1.18185e-19)
(-0.0695039 0.0793414 0)
(-0.0746237 0.0814562 0)
(-0.0766105 0.0824512 3.70921e-20)
(-0.0759221 0.0821021 6.2524e-23)
(-0.0729253 0.0801792 -8.3833e-20)
(-0.067916 0.0764659 4.4451e-20)
(-0.0611379 0.0707756 4.68476e-20)
(-0.0527968 0.062965 -2.42643e-20)
(-0.0430712 0.0529453 0)
(-0.0321216 0.0406881 0)
(-0.0201063 0.0262223 0)
(-0.00717771 0.00962328 7.86471e-20)
(0.187987 0.0229812 -9.87987e-20)
(0.120653 0.0325009 0)
(0.0677858 0.0402269 0)
(0.0246617 0.0469621 0)
(-0.00872128 0.0528259 5.01126e-23)
(-0.0344607 0.0579705 -8.37068e-20)
(-0.0535591 0.0625367 0)
(-0.0672157 0.0665875 0)
(-0.0763435 0.070145 0)
(-0.0817413 0.073165 -5.93404e-20)
(-0.0840611 0.0755478 6.41073e-20)
(-0.0838369 0.0771427 0)
(-0.0815 0.0777605 0)
(-0.0773972 0.0771888 2.85088e-22)
(-0.0718077 0.0752094 4.17772e-20)
(-0.064958 0.0716146 -4.40116e-20)
(-0.0570346 0.0662231 9.29358e-20)
(-0.0481947 0.0588915 -7.26538e-20)
(-0.0385711 0.0495246 0)
(-0.028277 0.0380819 1.04074e-19)
(-0.01743 0.0245675 -1.06918e-19)
(-0.00615374 0.00901432 -1.11647e-20)
(0.0559606 0.0270826 4.73925e-22)
(0.0117982 0.0349736 5.62783e-20)
(-0.0217006 0.0412558 -6.2246e-20)
(-0.0477671 0.0466765 -6.95393e-20)
(-0.0667719 0.0512675 1.79041e-23)
(-0.0802593 0.055248 0)
(-0.0890491 0.0587472 4.62142e-20)
(-0.0940399 0.0618462 -1.01414e-19)
(-0.095924 0.0645715 5.51399e-20)
(-0.0952974 0.0668884 1.19543e-19)
(-0.0926465 0.0687073 -3.25405e-20)
(-0.0883693 0.0698898 0)
(-0.0827884 0.0702612 7.42476e-20)
(-0.0761656 0.0696241 -1.18403e-19)
(-0.068714 0.0677745 8.37239e-20)
(-0.0606089 0.0645166 2.2003e-20)
(-0.0519966 0.0596764 9.26059e-20)
(-0.0430009 0.0531115 -9.66016e-20)
(-0.0337249 0.0447204 -7.52038e-20)
(-0.0242511 0.0344485 1.29089e-19)
(-0.0146753 0.0222723 0)
(-0.00511263 0.00818114 1.08964e-20)
(-0.0429845 0.0287396 5.04471e-20)
(-0.0686768 0.0346031 -5.62401e-20)
(-0.0868469 0.0393014 6.26457e-20)
(-0.0996044 0.0433232 0)
(-0.107472 0.0466722 7.72815e-20)
(-0.111547 0.0495487 -4.23362e-20)
(-0.112479 0.0520667 1.35086e-22)
(-0.110922 0.0543065 2.75188e-22)
(-0.107387 0.0562946 3.3412e-22)
(-0.102304 0.058003 -1.20032e-19)
(-0.0960246 0.0593529 -9.71782e-20)
(-0.0888374 0.0602211 6.94472e-20)
(-0.080978 0.0604507 0)
(-0.0726407 0.0598641 -3.94303e-20)
(-0.0639875 0.0582767 2.08705e-20)
(-0.0551554 0.0555097 -1.30644e-22)
(-0.0462621 0.0514019 0)
(-0.0374105 0.0458178 -9.61603e-20)
(-0.0286867 0.0386546 1.74285e-19)
(-0.0201573 0.0298484 -1.41262e-19)
(-0.0119126 0.019353 -9.18967e-20)
(-0.0040775 0.00712005 -1.07766e-20)
(-0.112367 0.0275097 3.94191e-22)
(-0.12374 0.0314376 4.32178e-22)
(-0.130111 0.0346277 -1.26532e-19)
(-0.132819 0.0373429 6.97875e-20)
(-0.132377 0.0395807 0)
(-0.129542 0.0414913 4.27101e-20)
(-0.1248 0.0431674 4.68367e-20)
(-0.118606 0.0446772 0)
(-0.111315 0.0460441 -2.77107e-20)
(-0.103222 0.0472453 0)
(-0.0945677 0.0482144 0)
(-0.0855489 0.0488463 0)
(-0.076331 0.0490064 0)
(-0.0670539 0.0485412 3.96382e-20)
(-0.0578393 0.0472907 -2.09674e-20)
(-0.0487948 0.0450994 -2.20663e-20)
(-0.0400178 0.0418258 -2.29921e-20)
(-0.0315979 0.0373494 1.19639e-20)
(-0.0236134 0.0315761 -8.67881e-20)
(-0.0161257 0.0244427 1.27726e-19)
(-0.00923269 0.0158919 -1.30993e-20)
(-0.00308206 0.00585216 -8.56541e-20)
(-0.153962 0.0236349 3.94691e-22)
(-0.154792 0.0259703 5.7019e-20)
(-0.152621 0.0278884 -9.46053e-20)
(-0.14827 0.0295077 0)
(-0.142145 0.0308301 0)
(-0.13474 0.0319554 -1.51639e-22)
(-0.126385 0.0329531 -1.7024e-22)
(-0.117372 0.0338751 2.55498e-20)
(-0.107922 0.0347398 7.83666e-23)
(-0.0982199 0.0355299 0)
(-0.0884118 0.0361927 3.24751e-20)
(-0.0786222 0.0366441 8.72186e-20)
(-0.0689588 0.0367749 -7.44668e-20)
(-0.0595184 0.0364602 0)
(-0.0503907 0.0355683 0)
(-0.0416605 0.0339717 0)
(-0.0334096 0.0315548 2.30523e-20)
(-0.0257182 0.02822 -1.19879e-20)
(-0.0186601 0.0238926 9.88547e-20)
(-0.0122976 0.0185239 -1.14584e-19)
(-0.00674112 0.0120625 0)
(-0.00216835 0.00443509 0)
(-0.168201 0.0177771 -5.06349e-20)
(-0.162181 0.0189511 5.71713e-20)
(-0.154678 0.0199208 -6.30925e-20)
(-0.14618 0.0207226 0)
(-0.136942 0.0213662 1.95879e-20)
(-0.127255 0.0219124 -8.57179e-20)
(-0.117308 0.0224087 2.35028e-20)
(-0.10726 0.0228911 2.57133e-20)
(-0.0972274 0.0233729 5.5885e-20)
(-0.0873011 0.0238425 -1.51189e-20)
(-0.0775558 0.0242627 -1.14162e-19)
(-0.0680576 0.0245723 5.23894e-20)
(-0.0588698 0.0246906 0)
(-0.0500559 0.0245233 0)
(-0.0416815 0.0239703 1.04752e-20)
(-0.0338139 0.0229337 -8.80405e-20)
(-0.0265222 0.0213263 7.56201e-23)
(-0.0198775 0.0190777 1.07684e-19)
(-0.0139481 0.0161405 -1.2372e-20)
(-0.00879479 0.0124924 0)
(-0.00453671 0.00810978 -5.17967e-20)
(-0.00137705 0.00294958 4.23844e-20)
(-0.154983 0.0111114 0)
(-0.145879 0.0115548 0)
(-0.136321 0.0119179 6.3792e-20)
(-0.126594 0.012197 -7.06462e-20)
(-0.116809 0.0124073 -2.06285e-22)
(-0.107106 0.0125825 -2.14389e-22)
(-0.0975662 0.0127516 2.34848e-20)
(-0.0882484 0.0129368 0)
(-0.0791893 0.0131472 -2.80408e-20)
(-0.0704139 0.0133776 7.59459e-20)
(-0.0619436 0.0136065 -4.90007e-20)
(-0.053802 0.0137971 0)
(-0.0460194 0.0138983 8.42787e-20)
(-0.0386352 0.0138486 -1.59031e-19)
(-0.0316971 0.0135799 7.34946e-20)
(-0.0252596 0.0130241 4.41118e-20)
(-0.0193816 0.0121203 -4.03521e-20)
(-0.014125 0.0108223 -1.1974e-20)
(-0.00954859 0.00910737 0)
(-0.00570419 0.00698227 6.35822e-21)
(-0.00270232 0.00446325 0)
(-0.000747408 0.00156515 -2.64531e-21)
(-0.114285 0.00476307 1.25128e-20)
(-0.105939 0.00483897 -7.4327e-21)
(-0.097647 0.00488435 6.37939e-20)
(-0.0896023 0.00489407 -3.52962e-20)
(-0.0818089 0.00488335 6.87064e-20)
(-0.0743166 0.00486867 -4.30482e-20)
(-0.0671351 0.0048633 0)
(-0.0602652 0.00487731 5.18164e-20)
(-0.0536969 0.00491569 -5.61633e-20)
(-0.0474174 0.00497757 0)
(-0.0414165 0.00505556 -3.28462e-20)
(-0.0356912 0.00513525 7.03855e-20)
(-0.0302495 0.00519506 -4.69242e-20)
(-0.0251118 0.00520665 -4.99562e-21)
(-0.0203109 0.00513602 4.21068e-20)
(-0.0158902 0.00494591 -4.42357e-20)
(-0.0118997 0.00459991 -8.66671e-21)
(-0.00839305 0.00406895 -3.00655e-21)
(-0.00541935 0.00334208 0)
(-0.00301521 0.00243912 -6.35904e-21)
(-0.00125399 0.00141176 -3.257e-21)
(-0.000291692 0.00036649 2.64124e-21)
(-0.0468092 0.000715367 -1.25094e-20)
(-0.0429554 0.000704482 7.2001e-21)
(-0.0391766 0.000686875 -2.42881e-22)
(-0.0356172 0.000661297 -3.45834e-20)
(-0.0322493 0.000634444 2.82603e-20)
(-0.0290847 0.000610291 2.09632e-20)
(-0.0261115 0.000591506 -2.30114e-20)
(-0.0233157 0.000580165 0)
(-0.0206791 0.000577723 0)
(-0.0181834 0.000585006 2.93143e-20)
(-0.0158121 0.000602008 -6.29912e-20)
(-0.0135532 0.000627549 -5.78212e-23)
(-0.0114009 0.000658831 7.18986e-20)
(-0.00935777 0.000690879 -3.33578e-20)
(-0.00743541 0.000715973 -4.0233e-20)
(-0.00565525 0.000723288 4.2236e-20)
(-0.00404802 0.000699118 -4.1326e-20)
(-0.00265246 0.000628523 4.86752e-20)
(-0.00151054 0.000500116 -4.72734e-20)
(-0.000658096 0.000314715 9.72376e-20)
(-0.000132648 9.65917e-05 -4.66338e-20)
(1.54218e-05 -7.12192e-05 0)
(1.13622 0.0237426 -3.23116e-20)
(1.09016 0.0253662 -4.59556e-22)
(1.04205 0.0270373 -8.3257e-22)
(0.991805 0.0287575 4.95989e-20)
(0.939519 0.0305323 2.84006e-20)
(0.88528 0.032368 0)
(0.829182 0.0342675 1.80993e-20)
(0.771331 0.0362316 0)
(0.711844 0.0382598 5.52312e-24)
(0.650853 0.0403494 2.53435e-20)
(0.588501 0.0424926 5.93397e-22)
(0.524954 0.0446663 -6.00808e-20)
(0.46043 0.04681 4.89219e-20)
(0.395261 0.0487883 -3.48143e-20)
(0.329999 0.0503511 4.57247e-24)
(0.265546 0.0511076 3.99593e-20)
(0.203267 0.0505369 -4.17317e-20)
(0.145045 0.0480408 0)
(0.093143 0.0430342 0)
(0.0499618 0.0350434 -2.36837e-20)
(0.0187408 0.0237653 2.42179e-20)
(0.00351864 0.00911412 0)
(1.14062 0.0797262 6.49094e-20)
(1.095 0.0854663 -5.77666e-20)
(1.04751 0.0914808 -4.27993e-22)
(0.99784 0.0977399 -7.43049e-20)
(0.946135 0.104237 -8.59969e-20)
(0.892481 0.110974 -4.42808e-22)
(0.836968 0.11795 -1.80902e-20)
(0.779703 0.125158 8.18266e-20)
(0.720805 0.132589 -4.21241e-20)
(0.660403 0.140228 -1.48301e-19)
(0.598641 0.148044 -1.15885e-21)
(0.535679 0.155948 8.95532e-20)
(0.471721 0.163716 -4.77566e-20)
(0.407067 0.170858 0)
(0.342212 0.176479 7.45892e-20)
(0.277966 0.179198 -3.93986e-20)
(0.215573 0.177193 2.04804e-20)
(0.156774 0.16839 0)
(0.103687 0.150771 -2.22748e-20)
(0.0585877 0.122713 0)
(0.0246276 0.0831931 0)
(0.00580457 0.0319362 -7.892e-20)
(1.14928 0.135718 -6.4767e-20)
(1.10462 0.14559 0)
(1.05836 0.155871 4.30926e-20)
(1.00987 0.166551 4.92337e-20)
(0.959346 0.17762 0)
(0.906878 0.189087 6.33428e-20)
(0.852559 0.200953 -7.17126e-20)
(0.796498 0.213208 1.55876e-19)
(0.738815 0.225842 2.20048e-19)
(0.679638 0.238831 -9.60376e-20)
(0.619105 0.252122 0)
(0.557366 0.265566 2.94075e-20)
(0.494595 0.278779 0)
(0.431026 0.290925 -6.98221e-20)
(0.367032 0.300477 1.44057e-19)
(0.303236 0.305079 -1.93142e-19)
(0.240629 0.301626 1.00976e-19)
(0.180661 0.286592 -1.69708e-19)
(0.125158 0.256553 1.97708e-19)
(0.076146 0.208764 0)
(0.0366049 0.141501 0)
(0.010454 0.0543153 9.59334e-20)
(1.16128 0.188972 1.27604e-19)
(1.11817 0.202858 3.05263e-21)
(1.07386 0.217265 8.50882e-23)
(1.02723 0.232246 9.65638e-20)
(0.978544 0.247778 -1.06007e-19)
(0.92792 0.263873 1.1965e-19)
(0.875444 0.280528 6.72445e-20)
(0.821232 0.297733 -7.76933e-20)
(0.765406 0.315471 -8.63932e-20)
(0.708093 0.333709 0)
(0.649429 0.352374 0)
(0.589547 0.371257 0)
(0.528576 0.389818 5.9585e-20)
(0.466654 0.406881 1.11103e-21)
(0.403973 0.420301 -3.47591e-19)
(0.340873 0.42677 1.47401e-19)
(0.277969 0.421936 1.95858e-19)
(0.216273 0.400864 -1.6236e-19)
(0.157177 0.35878 4.12094e-20)
(0.102337 0.291871 -1.75583e-19)
(0.0544731 0.197769 1.7968e-19)
(0.017388 0.0758865 -1.6732e-19)
(1.1766 0.239627 4.5172e-22)
(1.13555 0.257395 -2.13169e-19)
(1.09384 0.275729 7.57407e-20)
(1.04966 0.294808 1.8561e-19)
(1.00342 0.314587 -2.03777e-19)
(0.955236 0.335083 -2.37934e-19)
(0.905205 0.356295 -1.9909e-19)
(0.853447 0.378213 -1.47177e-19)
(0.800084 0.400816 1.61141e-19)
(0.745247 0.424065 0)
(0.689065 0.447868 0)
(0.631651 0.471959 0)
(0.573077 0.495651 -5.94096e-20)
(0.51335 0.517441 6.38298e-20)
(0.452424 0.534584 6.80832e-20)
(0.390265 0.542858 2.8212e-19)
(0.32699 0.536705 -3.66449e-19)
(0.263037 0.509843 7.46852e-20)
(0.199224 0.456216 1.19538e-19)
(0.136727 0.371018 -1.65387e-19)
(0.0779306 0.251302 0)
(0.0264853 0.0963829 0)
(1.1948 0.286393 2.34182e-19)
(1.15634 0.30787 -6.63573e-22)
(1.11784 0.329893 0)
(1.0767 0.352837 0)
(1.03349 0.376624 2.0003e-19)
(0.988331 0.401274 -2.18959e-19)
(0.941323 0.42679 1.27695e-19)
(0.892594 0.453161 1.36901e-19)
(0.842273 0.480366 1.526e-19)
(0.790489 0.50836 1.71718e-19)
(0.737367 0.537036 3.14429e-21)
(0.682998 0.566078 -2.00996e-19)
(0.627382 0.59466 1.14156e-19)
(0.57037 0.620972 2.04997e-21)
(0.51162 0.641701 6.16365e-20)
(0.450639 0.651745 -2.62732e-19)
(0.386929 0.644402 3.48097e-19)
(0.320224 0.612112 -6.50956e-19)
(0.250641 0.547615 2.26977e-19)
(0.178773 0.4452 0)
(0.1066 0.301419 -3.20394e-19)
(0.0375936 0.115539 3.93944e-19)
(1.21544 0.328692 1.58261e-21)
(1.18008 0.35365 -1.28825e-19)
(1.14535 0.379065 1.46062e-19)
(1.10777 0.40558 -3.26961e-19)
(1.0681 0.433075 3.70383e-19)
(1.02649 0.461575 -2.0579e-19)
(0.98303 0.491087 2.36825e-19)
(0.93786 0.521602 -6.55333e-19)
(0.891116 0.553095 5.76983e-19)
(0.842928 0.585521 -4.67665e-19)
(0.793416 0.618756 0)
(0.742642 0.652443 1.89291e-19)
(0.690528 0.685631 1.06893e-19)
(0.636739 0.716227 1.29381e-21)
(0.580588 0.740386 -2.89586e-19)
(0.521038 0.752182 0)
(0.456869 0.743828 0)
(0.38698 0.706559 0)
(0.310673 0.632007 3.45838e-19)
(0.22786 0.513642 -2.15465e-19)
(0.140065 0.347601 0)
(0.0505482 0.133163 0)
(1.23785 0.365827 1.04214e-19)
(1.20608 0.39402 0)
(1.17563 0.422513 -1.29612e-19)
(1.14211 0.452278 -3.01885e-19)
(1.10649 0.483136 1.69882e-19)
(1.06891 0.515123 -1.86864e-19)
(1.02948 0.548255 1.04385e-19)
(0.98835 0.582525 -1.27588e-19)
(0.94566 0.617915 3.91862e-19)
(0.901547 0.65438 2.92069e-19)
(0.856126 0.69179 0)
(0.809435 0.729753 0)
(0.761308 0.767216 8.83433e-20)
(0.711208 0.801831 0)
(0.658058 0.829269 0)
(0.600206 0.842833 0)
(0.5356 0.833721 0)
(0.462188 0.792043 0)
(0.378338 0.708405 -5.77529e-20)
(0.283205 0.575559 -7.52268e-21)
(0.177796 0.389321 6.13775e-20)
(0.0651414 0.149051 2.18002e-19)
(1.26127 0.397231 1.91687e-19)
(1.23356 0.42833 -5.34313e-19)
(1.20781 0.459532 2.50399e-19)
(1.17873 0.492191 2.8825e-19)
(1.14756 0.52606 -1.56595e-19)
(1.11442 0.561185 3.55906e-19)
(1.07944 0.597588 -1.03347e-19)
(1.04279 0.63526 1.07437e-19)
(1.00461 0.674185 -3.6767e-19)
(0.96504 0.714316 -4.06016e-19)
(0.924195 0.755522 1.50181e-19)
(0.88208 0.797385 0)
(0.838442 0.838771 -2.54269e-19)
(0.792521 0.877115 1.77051e-19)
(0.742811 0.907658 2.73239e-19)
(0.686972 0.922998 -1.95506e-19)
(0.622023 0.913394 9.43635e-20)
(0.544844 0.867916 -2.56925e-19)
(0.45277 0.776235 2.2379e-19)
(0.344115 0.630487 -8.06897e-21)
(0.219331 0.426266 -8.39752e-21)
(0.0811942 0.163092 0)
(1.28481 0.42275 -3.47641e-19)
(1.26165 0.456471 6.07003e-19)
(1.24101 0.49003 -1.08999e-19)
(1.2168 0.525184 -1.26853e-19)
(1.19047 0.561614 -2.84792e-19)
(1.16214 0.59939 -8.73951e-21)
(1.13196 0.638551 1.71798e-19)
(1.1001 0.679103 0)
(1.06675 0.721039 0)
(1.03204 0.764321 0)
(0.996102 0.808822 5.15373e-19)
(0.958911 0.854117 -5.52544e-19)
(0.920133 0.899014 2.25847e-19)
(0.878784 0.940779 0)
(0.832909 0.974277 -8.69188e-20)
(0.779422 0.991469 7.80806e-20)
(0.71432 0.981738 -9.38315e-20)
(0.633303 0.93319 2.25896e-19)
(0.532555 0.834651 -3.17253e-19)
(0.409481 0.677741 1.37512e-19)
(0.263937 0.457956 -5.28486e-20)
(0.0984203 0.17509 0)
(1.30758 0.441899 -1.51375e-19)
(1.28932 0.477792 -1.75308e-19)
(1.27398 0.513322 0)
(1.25486 0.550643 1.11399e-19)
(1.23364 0.589338 1.36676e-19)
(1.21044 0.629479 -1.46739e-19)
(1.18541 0.671104 -1.71582e-19)
(1.15875 0.714219 1.76667e-19)
(1.13064 0.758821 1.94349e-19)
(1.10123 0.804878 1.2594e-22)
(1.07064 0.852269 -1.2119e-19)
(1.03883 0.90057 -3.69478e-19)
(1.00539 0.948557 3.24866e-19)
(0.969107 0.993365 6.1656e-20)
(0.927534 1.02955 -6.35132e-20)
(0.876785 1.04852 -7.74751e-20)
(0.81175 1.03887 0)
(0.726844 0.987855 0)
(0.61702 0.883553 1.49046e-19)
(0.478726 0.717181 -1.20249e-19)
(0.311204 0.484268 0)
(0.116657 0.185004 0)
(1.32865 0.455417 1.49119e-19)
(1.31589 0.493258 1.40942e-20)
(1.30624 0.53034 1.78213e-19)
(1.29252 0.569268 -1.09712e-19)
(1.27663 0.609586 -1.11332e-19)
(1.25867 0.651412 2.53615e-19)
(1.23888 0.694809 -6.9837e-21)
(1.21747 0.739798 0)
(1.19465 0.786389 9.77674e-21)
(1.17059 0.834563 -2.6911e-19)
(1.14543 0.884217 0)
(1.11913 0.934949 -1.11243e-19)
(1.09121 0.985541 0)
(1.06026 1.03306 1.5836e-19)
(1.02335 1.07182 -1.69779e-19)
(0.97579 1.09273 0)
(0.911267 1.08366 0)
(0.822792 1.03101 -5.05628e-20)
(0.703954 0.922222 0)
(0.550165 0.748218 -3.37989e-20)
(0.360039 0.504749 1.47059e-19)
(0.135481 0.192626 -2.04904e-19)
(1.34707 0.462162 -2.61382e-19)
(1.33989 0.501486 1.59824e-19)
(1.33582 0.54 -6.69641e-21)
(1.32772 0.5805 -9.15647e-20)
(1.31746 0.622422 2.09212e-19)
(1.30515 0.665882 -2.35514e-19)
(1.29102 0.710949 -1.47212e-20)
(1.27533 0.757656 0)
(1.25827 0.806024 1.98204e-20)
(1.24006 0.856044 -7.10463e-20)
(1.22082 0.907624 9.11002e-20)
(1.20053 0.96038 0)
(1.17862 1.0131 0)
(1.15346 1.0628 -9.51357e-20)
(1.12166 1.10362 3.63291e-19)
(1.07761 1.12605 -1.86005e-19)
(1.01373 1.11737 3.72428e-20)
(0.921581 1.06333 5.01549e-20)
(0.793373 0.95087 1.1488e-19)
(0.623525 0.770811 -1.00631e-19)