/*--------------------------------*- C++ -*----------------------------------*\
| =========                 |                                                 |
| \\      /  F ield         | OpenFOAM Extend Project: Open source CFD        |
|  \\    /   O peration     | Version:  1.6-ext                               |
|   \\  /    A nd           | Web:      www.extend-project.de                 |
|    \\/     M anipulation  |                                                 |
\*---------------------------------------------------------------------------*/
FoamFile
{
    version     2.0;
    format      ascii;
    class       volVectorField;
    location    "0.75";
    object      U_0;
}
// * * * * * * * * * * * * * * * * * * * * * * * * * * * * * * * * * * * * * //

dimensions      [0 1 -1 0 0 0 0];

internalField   nonuniform List<vector> 
20940
(
(1.84967 0.397316 0)
(1.88934 0.417394 0)
(1.92691 0.436755 0)
(1.96152 0.454354 0)
(1.99288 0.4704 6.17052e-24)
(2.01936 0.48377 1.75617e-20)
(2.03798 0.493356 -9.85065e-21)
(2.04392 0.497212 0)
(2.03079 0.493103 8.21174e-21)
(1.99149 0.478788 -1.82181e-20)
(1.91978 0.452723 0)
(1.81206 0.414673 1.29919e-20)
(1.66878 0.366067 -6.32477e-21)
(1.4948 0.309897 -2.35662e-20)
(1.29862 0.250172 0)
(1.09069 0.191157 1.92043e-20)
(0.88154 0.136662 -1.02302e-20)
(0.680291 0.0895913 -5.71764e-21)
(0.493763 0.0517614 1.15702e-20)
(0.326265 0.0239473 -6.0004e-21)
(0.179824 0.00662918 0)
(0.0546514 0.000491019 0)
(1.87659 0.373985 7.90749e-21)
(1.91499 0.392913 0)
(1.95096 0.410467 8.73547e-21)
(1.9834 0.426285 -1.18564e-20)
(2.01147 0.440031 -1.94885e-21)
(2.03268 0.450501 7.14462e-21)
(2.04301 0.456282 2.05222e-20)
(2.03673 0.455341 1.38599e-20)
(2.00706 0.445606 -1.50884e-20)
(1.94749 0.425392 -9.29415e-21)
(1.85353 0.394058 0)
(1.72424 0.352417 0)
(1.56304 0.302798 -7.70682e-21)
(1.37725 0.248659 6.97974e-20)
(1.17674 0.193916 -3.34911e-20)
(0.972069 0.142241 2.79523e-20)
(0.772839 0.0965554 -1.9832e-20)
(0.586635 0.0588127 4.94913e-21)
(0.418622 0.0299921 2.24484e-20)
(0.271654 0.0102436 -1.72596e-20)
(0.146697 -0.000371751 -1.19163e-20)
(0.0433637 -0.00141133 0)
(1.9013 0.350614 -1.13816e-20)
(1.9381 0.368463 2.7793e-20)
(1.97193 0.384318 -5.84192e-21)
(2.00133 0.398369 -2.1756e-20)
(2.02469 0.409712 2.99718e-20)
(2.0385 0.417058 -1.70558e-20)
(2.03772 0.418754 -4.35319e-20)
(2.01596 0.412835 -2.7941e-20)
(1.96664 0.397609 3.04215e-20)
(1.88463 0.372146 5.53317e-20)
(1.76787 0.336779 4.38193e-20)
(1.61842 0.293264 -7.10249e-20)
(1.44246 0.244537 -6.89349e-20)
(1.24914 0.194148 5.88857e-20)
(1.04886 0.14559 0)
(0.851524 0.101756 0)
(0.665293 0.0646569 3.75138e-20)
(0.49604 0.0354005 1.00748e-20)
(0.347317 0.0142982 -4.23639e-20)
(0.22069 0.00104488 0)
(0.116259 -0.00459302 -2.36321e-20)
(0.0331778 -0.00236552 3.86501e-20)
(1.92486 0.327578 2.08554e-20)
(1.95959 0.34442 3.123e-20)
(1.99048 0.358615 0)
(2.01552 0.370803 0)
(2.0321 0.379506 2.42218e-21)
(2.03562 0.383387 -1.71162e-20)
(2.02018 0.380673 2.23372e-20)
(1.97927 0.369683 0)
(1.90733 0.349328 -6.52657e-20)
(1.80143 0.319575 3.41128e-20)
(1.66249 0.281705 -4.27251e-20)
(1.4956 0.238183 6.98039e-20)
(1.30913 0.192192 -5.31946e-20)
(1.1132 0.147013 2.85129e-20)
(0.91784 0.105467 6.34849e-20)
(0.731633 0.0695886 -6.70843e-20)
(0.561 0.0405449 5.46512e-20)
(0.41006 0.0187461 -1.15173e-19)
(0.280897 0.00400876 -8.20137e-20)
(0.174003 -0.00427197 6.40047e-20)
(0.0888103 -0.00650986 -1.13886e-20)
(0.0241593 -0.00257086 0)
(1.94698 0.30495 -2.71349e-20)
(1.979 0.320784 3.24052e-20)
(2.00577 0.333272 4.36792e-20)
(2.02457 0.343397 -4.8329e-20)
(2.0316 0.34914 -1.21966e-21)
(2.02126 0.349206 3.63613e-20)
(1.98725 0.341891 -9.29873e-20)
(1.92377 0.326032 5.17486e-20)
(1.82719 0.301328 6.42813e-20)
(1.69748 0.268671 -3.42865e-20)
(1.53876 0.230115 4.28352e-20)
(1.35866 0.188495 -8.92598e-20)
(1.16691 0.146865 4.94454e-20)
(0.973575 0.107945 2.81745e-20)
(0.787524 0.0737614 0)
(0.615605 0.0455236 6.53003e-20)
(0.462384 0.023692 -6.86703e-20)
(0.330361 0.00815606 9.29634e-20)
(0.220385 -0.00159532 -5.81654e-20)
(0.13212 -0.0063327 9.49054e-22)
(0.0645374 -0.00655681 -2.07387e-20)
(0.0163111 -0.00219126 0)
(1.96717 0.282801 -2.60911e-20)
(1.99548 0.297576 -9.10495e-22)
(2.01643 0.308216 -4.38529e-20)
(2.02637 0.315969 0)
(2.02032 0.318375 -3.16611e-20)
(1.99207 0.314345 -4.00912e-20)
(1.93572 0.30248 8.93788e-20)
(1.84711 0.282348 0)
(1.72545 0.254513 -2.01643e-21)
(1.57398 0.220675 3.30518e-20)
(1.39966 0.18335 3.99023e-20)
(1.21183 0.145363 4.31229e-20)
(1.02048 0.109313 -4.92685e-20)
(0.834711 0.0771972 -1.06864e-19)
(0.661683 0.0502482 5.56566e-20)
(0.506327 0.0289714 6.11999e-20)
(0.371465 0.0132953 0)
(0.258221 0.00276349 3.43167e-20)
(0.166492 -0.00331879 -1.89507e-20)
(0.0953656 -0.00578407 9.80091e-20)
(0.0435372 -0.00515485 -5.976e-20)
(0.00963042 -0.00137764 6.77791e-20)
(1.98499 0.260941 3.17041e-20)
(2.00802 0.274473 3.69007e-20)
(2.02063 0.283 4.35555e-20)
(2.01824 0.288015 5.50357e-20)
(1.99494 0.286781 0)
(1.94468 0.278626 0)
(1.86295 0.262677 -4.54443e-20)
(1.74827 0.239356 -5.23873e-20)
(1.60318 0.210019 -6.06148e-20)
(1.434 0.176901 -6.92631e-20)
(1.24971 0.142603 -7.74283e-20)
(1.06024 0.109599 8.18576e-20)
(0.874807 0.0798362 9.3773e-20)
(0.700844 0.0545575 2.01386e-21)
(0.543569 0.0343062 -1.08573e-19)
(0.406064 0.0190539 0)
(0.289657 0.0083752 -3.0866e-20)
(0.194409 0.00161828 -6.70079e-20)
(0.119549 -0.00198432 0)
(0.0638104 -0.00325524 0)
(0.0257641 -0.00269865 3.99231e-20)
(0.00407106 -0.000266113 -6.44436e-20)
(1.99893 0.239308 -5.91007e-20)
(2.0144 0.251348 -1.13402e-19)
(2.01537 0.257446 0)
(1.99652 0.259371 -1.10709e-19)
(1.95167 0.254361 0)
(1.87601 0.242392 -1.57943e-19)
(1.7675 0.223272 4.27951e-20)
(1.62803 0.19825 1.03537e-19)
(1.46339 0.169236 0)
(1.28226 0.13864 6.5309e-20)
(1.09446 0.108795 7.4595e-20)
(0.909341 0.0815917 -4.12678e-20)
(0.73456 0.0582718 -8.98605e-20)
(0.575576 0.0394087 9.59967e-20)
(0.435675 0.0250174 -1.05675e-19)
(0.316345 0.0147135 1.70085e-19)
(0.217756 0.00787224 -8.88336e-20)
(0.139219 0.00376222 -9.61052e-20)
(0.0795496 0.00161892 1.34224e-19)
(0.0373102 0.000672813 -3.4702e-20)
(0.0110611 0.00045863 3.77502e-20)
(-0.000444601 0.00102554 7.72845e-20)
(2.00771 0.217345 0)
(2.01234 0.227504 7.6097e-20)
(1.99749 0.23084 4.79429e-20)
(1.95766 0.229522 5.55984e-20)
(1.88749 0.221014 1.35443e-19)
(1.78455 0.206072 8.12789e-20)
(1.65011 0.185199 2.11877e-21)
(1.48951 0.160264 -5.10883e-20)
(1.31112 0.13339 0)
(1.12474 0.106805 -6.47882e-20)
(0.939827 0.0823274 -7.17714e-20)
(0.764255 0.0611915 7.73732e-20)
(0.603695 0.043997 0)
(0.461614 0.030802 0)
(0.339621 0.0212689 -4.94047e-20)
(0.237958 0.0148142 5.50115e-20)
(0.155977 0.0107326 0)
(0.0925234 0.00829207 1.23274e-19)
(0.0462076 0.0067764 -1.28586e-19)
(0.0155546 0.00549068 3.46189e-20)
(-0.000811391 0.00401563 1.42158e-19)
(-0.0040156 0.00239994 -1.63191e-19)
(2.00787 0.195104 0)
(1.99778 0.203074 -4.18769e-20)
(1.96267 0.20351 -5.09427e-20)
(1.89799 0.199073 -3.53299e-21)
(1.80035 0.187718 -1.3429e-21)
(1.67067 0.171012 7.87232e-20)
(1.51377 0.150006 -8.64046e-20)
(1.33782 0.126873 -2.0015e-19)
(1.1526 0.103598 1.65616e-19)
(0.967738 0.0819643 -6.40062e-20)
(0.791315 0.0631769 1.35888e-19)
(0.629224 0.0478592 0)
(0.485095 0.0361098 8.2904e-20)
(0.360643 0.0276403 -8.8652e-20)
(0.25616 0.0219157 4.90519e-20)
(0.171012 0.018272 0)
(0.104043 0.0160038 -5.69193e-20)
(0.0538625 0.0144246 1.16917e-19)
(0.0190256 0.0128889 0)
(-0.00188879 0.0107829 0)
(-0.0101502 0.00773268 0)
(-0.00675446 0.0037822 1.09555e-21)
(1.99768 0.171561 -6.57735e-20)
(1.96802 0.177081 8.37179e-20)
(1.90847 0.174734 0)
(1.81625 0.167824 -5.89814e-20)
(1.69115 0.154865 -1.88722e-21)
(1.53779 0.138036 7.77509e-20)
(1.36402 0.118663 -8.39497e-20)
(1.1797 0.0988575 1.78699e-22)
(0.994643 0.080216 5.27822e-20)
(0.817199 0.0639606 -1.09277e-21)
(0.653494 0.0507199 0)
(0.507331 0.0406367 0)
(0.380519 0.0334731 0)
(0.273388 0.0287476 0)
(0.185302 0.0258465 9.34985e-20)
(0.115083 0.0241063 -4.99253e-20)
(0.0613164 0.0228687 -5.41326e-20)
(0.0225454 0.0215162 5.57749e-20)
(-0.00262963 0.0194811 0)
(-0.0155229 0.0162293 1.25861e-19)
(-0.0172809 0.0114294 -1.30213e-19)
(-0.00877794 0.00511734 2.82986e-20)
(1.97108 0.147836 4.07241e-21)
(1.91846 0.151004 2.50476e-21)
(1.83179 0.146403 0)
(1.71202 0.137924 0)
(1.56239 0.124663 6.61396e-20)
(1.39093 0.109159 0)
(1.2074 0.0927291 8.5449e-20)
(1.02196 0.077152 -9.58216e-20)
(0.843273 0.0635117 0)
(0.677776 0.0524808 -5.90112e-20)
(0.529475 0.0442234 0)
(0.40029 0.0385509 0)
(0.290582 0.035032 0)
(0.199701 0.0331037 -8.21819e-20)
(0.126435 0.0321499 -9.01559e-20)
(0.0693303 0.0315518 -9.74005e-20)
(0.0268982 0.0307192 5.14641e-20)
(-0.00227334 0.0291098 -1.0926e-19)
(-0.0194761 0.0262317 5.68671e-20)
(-0.0258931 0.0216247 0)
(-0.0225471 0.0149969 -1.26619e-19)
(-0.0102072 0.00637578 2.62089e-20)
(1.92987 0.121971 -7.10962e-20)
(1.84969 0.123142 2.26561e-21)
(1.73514 0.117294 0)
(1.5898 0.108638 0)
(1.42057 0.0967882 0)
(1.23775 0.0841461 0)
(1.0516 0.0718145 -8.3626e-20)
(0.871313 0.0610629 0)
(0.703663 0.0524818 0)
(0.552933 0.0462953 0)
(0.421174 0.0423538 -1.25567e-19)
(0.308793 0.0402818 6.78798e-20)
(0.21512 0.0395695 0)
(0.138892 0.0396509 1.55153e-21)
(0.078603 0.0399522 0)
(0.0327174 0.0399205 -4.64153e-20)
(-0.000207076 0.0390395 1.49113e-19)
(-0.0214706 0.0368397 1.05597e-19)
(-0.0322285 0.0328986 -1.1153e-19)
(-0.0335264 0.0268239 0)
(-0.0262725 0.0183621 -3.01444e-20)
(-0.0111522 0.00753757 -2.66217e-20)
(1.8639 0.0983221 0)
(1.75881 0.0981681 -1.73712e-19)
(1.61817 0.0918998 9.815e-20)
(1.45262 0.0840863 -1.15342e-19)
(1.27083 0.0745528 0)
(1.08419 0.0653691 7.35331e-20)
(0.90215 0.0573442 1.64407e-19)
(0.732098 0.0512006 -9.0987e-20)
(0.578638 0.04712 -1.01419e-19)
(0.444042 0.044997 5.30374e-24)
(0.328794 0.0444923 -6.16917e-20)
(0.232221 0.0451442 1.98485e-19)
(0.153016 0.0464324 0)
(0.0896075 0.0478255 7.85713e-20)
(0.040404 0.0488066 -1.67603e-19)
(0.00391926 0.0488877 8.96765e-20)
(-0.021172 0.0476178 -4.7637e-20)
(-0.036027 0.0445892 -5.16588e-20)
(-0.0416579 0.0394385 1.08013e-19)
(-0.0389801 0.0318328 0)
(-0.0288004 0.0215544 1.48661e-19)
(-0.0117353 0.00862733 -1.02148e-19)
(1.78983 0.0711889 0)
(1.65424 0.0705519 1.75675e-19)
(1.49185 0.0661439 -1.98237e-19)
(1.3115 0.0604061 -1.01558e-21)
(1.12378 0.054715 0)
(0.93946 0.0499615 -7.23567e-20)
(0.766257 0.0467189 -8.06949e-20)
(0.60932 0.0451599 1.78519e-19)
(0.471177 0.0451849 -9.80571e-20)
(0.352458 0.0465114 7.20149e-23)
(0.252521 0.0487474 -1.59541e-21)
(0.17002 0.0514467 6.39695e-20)
(0.103316 0.054142 0)
(0.0507356 0.0563668 7.57833e-20)
(0.0107245 0.0576677 -1.61396e-19)
(-0.0180905 0.057614 8.6876e-20)
(-0.0368903 0.0558048 4.7017e-20)
(-0.046684 0.0518781 5.02009e-20)
(-0.0483463 0.0455158 -2.08979e-19)
(-0.042673 0.0364352 0)
(-0.0303829 0.024455 2.84534e-20)
(-0.01204 0.00960786 -1.24878e-19)
(1.64017 0.0514256 0)
(1.47411 0.0481954 -4.46891e-20)
(1.29202 0.0458112 5.33019e-20)
(1.10497 0.0430989 1.8211e-19)
(0.922276 0.0416433 -1.36562e-19)
(0.751594 0.0413507 7.56816e-20)
(0.597486 0.0424232 8.46555e-20)
(0.462239 0.0446753 3.62102e-22)
(0.346244 0.0478623 5.61915e-22)
(0.248696 0.0516576 0)
(0.168121 0.0556969 -6.12768e-20)
(0.102781 0.0595931 6.66098e-20)
(0.0509303 0.0629476 7.15593e-20)
(0.0109622 0.0653596 0)
(-0.0185245 0.0664355 8.35866e-20)
(-0.0387162 0.0657997 0)
(-0.0506066 0.0631055 4.68883e-20)
(-0.0550338 0.0580474 5.02912e-20)
(-0.0527246 0.0503712 8.49566e-22)
(-0.0443486 0.0398731 0)
(-0.0305267 0.0264476 -2.87286e-20)
(-0.0117676 0.0101773 4.70743e-22)
(1.38581 0.0295439 0)
(1.20192 0.0288044 0)
(1.01877 0.0308436 0)
(0.843578 0.0325066 0)
(0.682545 0.0356724 -7.0748e-20)
(0.539031 0.0393945 1.56188e-19)
(0.414346 0.0438479 -1.7217e-19)
(0.308246 0.0487337 3.86091e-22)
(0.219539 0.0538525 -2.08232e-19)
(0.146547 0.0589442 -6.96229e-22)
(0.0874517 0.0637297 6.16568e-20)
(0.0405004 0.0679038 0)
(0.00412126 0.0711427 -7.2673e-20)
(-0.0230333 0.0731128 0)
(-0.0420865 0.0734827 0)
(-0.0539628 0.0719373 0)
(-0.0594264 0.0681921 -4.74336e-20)
(-0.0591218 0.0620078 -5.02447e-20)
(-0.0536149 0.0532018 2.08407e-19)
(-0.043434 0.04165 0)
(-0.0290756 0.0273209 1.12757e-19)
(-0.0109571 0.0103287 2.44711e-20)
(1.1006 0.0174332 -8.95098e-20)
(0.921823 0.0197832 0)
(0.75716 0.0257342 1.15953e-19)
(0.607067 0.0306626 6.50415e-20)
(0.475394 0.036783 7.27126e-20)
(0.361976 0.0428445 -7.93983e-20)
(0.266281 0.0490807 0)
(0.186751 0.0552139 9.66265e-20)
(0.121627 0.0611114 0)
(0.0690714 0.0665762 0)
(0.0273777 0.0713935 2.98178e-22)
(-0.00496259 0.0753164 0)
(-0.0292284 0.0780737 4.22751e-22)
(-0.0464763 0.0793796 -7.81603e-20)
(-0.0575662 0.0789482 4.16555e-20)
(-0.0631972 0.0765092 0)
(-0.0639452 0.0718249 -9.42992e-20)
(-0.0602993 0.0647055 -9.25669e-22)
(-0.052693 0.0550208 5.13131e-20)
(-0.0415357 0.0427046 1.34669e-19)
(-0.0272169 0.0277753 -1.11367e-19)
(-0.0100743 0.0103622 0)
(0.820716 0.0120716 9.38636e-20)
(0.663742 0.0181811 0)
(0.527744 0.0266552 -5.84408e-20)
(0.407745 0.0338006 -1.32209e-19)
(0.30624 0.0414048 -7.35756e-20)
(0.220997 0.0484869 8.1381e-20)
(0.150781 0.0552858 4.6773e-22)
(0.0936223 0.0616293 -9.7752e-20)
(0.0477794 0.0674583 -5.34353e-20)
(0.0116006 0.0726422 0)
(-0.01634 0.0770202 1.90024e-19)
(-0.0372491 0.0803892 -1.36315e-19)
(-0.0521195 0.0825138 1.20329e-22)
(-0.0617556 0.083139 3.93637e-20)
(-0.0668042 0.0820065 -4.21318e-20)
(-0.0677882 0.0788735 8.91296e-20)
(-0.065138 0.07353 -1.41168e-19)
(-0.0592203 0.0658147 4.89125e-20)
(-0.0503616 0.0556263 0)
(-0.0388698 0.0429299 -1.07327e-19)
(-0.0250408 0.0277672 1.10271e-19)
(-0.00913914 0.0102667 0)
(0.569251 0.0131125 -9.53869e-20)
(0.442554 0.022053 0)
(0.337451 0.0312719 0)
(0.247007 0.0392559 0)
(0.172693 0.0469796 7.45817e-20)
(0.111627 0.0539703 8.22255e-20)
(0.062477 0.0604272 0)
(0.0233822 0.0662879 0)
(-0.00714097 0.0715391 2.16657e-19)
(-0.0304403 0.0760943 -1.17495e-19)
(-0.0476374 0.0798241 0)
(-0.0596624 0.0825505 0)
(-0.0672696 0.0840585 -1.10687e-19)
(-0.0710654 0.0841115 1.5775e-19)
(-0.071535 0.0824681 -4.18176e-20)
(-0.0690702 0.0789018 0)
(-0.0639934 0.0732181 -1.87515e-19)
(-0.056579 0.0652696 -1.36444e-22)
(-0.0470693 0.0549674 1.02272e-19)
(-0.0356895 0.042287 7.9381e-20)
(-0.0226579 0.0272721 -1.09193e-19)
(-0.00817448 0.0100315 2.27922e-20)
(0.357881 0.0176306 0)
(0.262531 0.0276951 -5.52709e-20)
(0.185746 0.0365 -4.69247e-22)
(0.121234 0.0442151 6.8002e-20)
(0.0696126 0.0512214 7.54163e-20)
(0.0282305 0.0574526 6.44281e-23)
(-0.00410428 0.0630696 3.47695e-22)
(-0.0289356 0.0680899 -1.00005e-19)
(-0.0474447 0.0725246 5.46393e-20)
(-0.0606814 0.0763143 -1.18442e-19)
(-0.0695065 0.0793478 0)
(-0.0746272 0.0814625 0)
(-0.0766145 0.0824573 3.71719e-20)
(-0.0759263 0.0821079 6.25276e-23)
(-0.0729294 0.0801846 -8.40132e-20)
(-0.0679201 0.0764711 4.45462e-20)
(-0.0611418 0.0707806 4.69477e-20)
(-0.0528005 0.0629699 -2.43164e-20)
(-0.0430747 0.0529499 0)
(-0.0321247 0.0406923 0)
(-0.0201087 0.0262256 0)
(-0.00717877 0.00962479 7.88159e-20)
(0.188026 0.0229834 -9.90266e-20)
(0.120682 0.0325049 0)
(0.0678062 0.0402321 0)
(0.0246753 0.0469682 0)
(-0.00871309 0.0528325 4.96992e-23)
(-0.0344567 0.0579774 -8.38921e-20)
(-0.0535582 0.0625437 0)
(-0.0672171 0.0665945 0)
(-0.0763465 0.0701518 0)
(-0.0817454 0.0731717 -5.94696e-20)
(-0.0840658 0.0755543 6.42467e-20)
(-0.083842 0.0771489 0)
(-0.0815051 0.0777664 0)
(-0.0774021 0.0771944 2.85385e-22)
(-0.0718123 0.0752146 4.18674e-20)
(-0.0649622 0.0716196 -4.41069e-20)
(-0.0570385 0.0662278 9.31361e-20)
(-0.0481983 0.0588961 -7.28105e-20)
(-0.0385744 0.0495291 0)
(-0.0282799 0.0380861 1.04298e-19)
(-0.0174321 0.0245708 -1.07148e-19)
(-0.00615472 0.00901584 -1.11887e-20)
(0.055984 0.0270883 4.74674e-22)
(0.0118138 0.0349805 5.64056e-20)
(-0.0216915 0.0412633 -6.23868e-20)
(-0.0477629 0.0466843 -6.96942e-20)
(-0.0667715 0.0512753 1.83694e-23)
(-0.0802616 0.0552557 0)
(-0.0890533 0.0587546 4.63159e-20)
(-0.0940454 0.0618533 -1.01636e-19)
(-0.0959302 0.0645783 5.52607e-20)
(-0.095304 0.0668949 1.19804e-19)
(-0.0926531 0.0687134 -3.26111e-20)
(-0.0883756 0.0698956 0)
(-0.0827944 0.0702666 7.44086e-20)
(-0.0761711 0.0696291 -1.18659e-19)
(-0.0687189 0.0677791 8.39053e-20)
(-0.0606133 0.064521 2.20507e-20)
(-0.0520004 0.0596806 9.28064e-20)
(-0.0430043 0.0531158 -9.68108e-20)
(-0.0337279 0.0447246 -7.53667e-20)
(-0.0242537 0.0344524 1.29369e-19)
(-0.0146772 0.0222754 0)
(-0.0051135 0.00818263 1.09202e-20)
(-0.0429764 0.0287476 5.05634e-20)
(-0.0686741 0.0346116 -5.6368e-20)
(-0.0868484 0.03931 6.2787e-20)
(-0.099609 0.0433317 0)
(-0.107478 0.0466803 7.74533e-20)
(-0.111555 0.0495563 -4.24299e-20)
(-0.112487 0.0520738 1.35043e-22)
(-0.110931 0.0543132 2.75088e-22)
(-0.107396 0.0563008 3.34296e-22)
(-0.102313 0.0580087 -1.20294e-19)
(-0.0960328 0.0593581 -9.73899e-20)
(-0.0888449 0.0602259 6.95985e-20)
(-0.0809848 0.0604551 0)
(-0.0726467 0.0598682 -3.9516e-20)
(-0.0639926 0.0582804 2.09158e-20)
(-0.0551598 0.0555132 -1.30817e-22)
(-0.0462658 0.0514053 0)
(-0.0374137 0.0458213 -9.63694e-20)
(-0.0286894 0.0386582 1.74665e-19)
(-0.0201596 0.0298519 -1.4157e-19)
(-0.0119143 0.0193559 -9.20975e-20)
(-0.00407825 0.00712147 -1.08003e-20)
(-0.112373 0.0275185 3.94433e-22)
(-0.123749 0.0314465 4.32411e-22)
(-0.130122 0.0346362 -1.26817e-19)
(-0.132832 0.037351 6.99443e-20)
(-0.13239 0.0395882 0)
(-0.129555 0.0414982 4.28046e-20)
(-0.124812 0.0431736 4.69399e-20)
(-0.118618 0.0446828 0)
(-0.111326 0.0460491 -2.77714e-20)
(-0.103233 0.0472498 0)
(-0.094577 0.0482184 0)
(-0.0855572 0.0488499 0)
(-0.0763383 0.0490095 0)
(-0.0670602 0.0485439 3.97244e-20)
(-0.0578445 0.0472932 -2.1013e-20)
(-0.0487991 0.0451017 -2.21143e-20)
(-0.0400213 0.0418281 -2.30422e-20)
(-0.0316008 0.0373519 1.19899e-20)
(-0.0236158 0.0315789 -8.69776e-20)
(-0.0161277 0.0244456 1.28005e-19)
(-0.00923409 0.0158945 -1.3128e-20)
(-0.00308268 0.00585346 -8.58421e-20)
(-0.15398 0.0236433 3.95005e-22)
(-0.154811 0.0259784 5.71481e-20)
(-0.152639 0.027896 -9.48192e-20)
(-0.148288 0.0295146 0)
(-0.142163 0.0308362 0)
(-0.134757 0.0319608 -1.51849e-22)
(-0.126401 0.0329578 -1.70212e-22)
(-0.117385 0.0338791 2.56062e-20)
(-0.107935 0.0347432 7.86267e-23)
(-0.0982313 0.0355328 0)
(-0.0884218 0.0361951 3.25458e-20)
(-0.078631 0.0366461 8.74084e-20)
(-0.0689663 0.0367765 -7.46288e-20)
(-0.0595247 0.0364614 0)
(-0.0503959 0.0355692 0)
(-0.0416647 0.0339726 0)
(-0.0334129 0.0315557 2.31025e-20)
(-0.0257208 0.0282213 -1.2014e-20)
(-0.0186622 0.0238944 9.90706e-20)
(-0.0122991 0.018526 -1.14834e-19)
(-0.00674222 0.0120645 0)
(-0.00216882 0.0044362 0)
(-0.168227 0.017784 -5.07517e-20)
(-0.162206 0.0189575 5.73006e-20)
(-0.154701 0.0199265 -6.32349e-20)
(-0.146201 0.0207276 0)
(-0.136962 0.0213704 1.96312e-20)
(-0.127273 0.0219159 -8.59075e-20)
(-0.117324 0.0224115 2.35543e-20)
(-0.107275 0.0228932 2.57697e-20)
(-0.0972404 0.0233745 5.6007e-20)
(-0.0873125 0.0238436 -1.51517e-20)
(-0.0775657 0.0242633 -1.1441e-19)
(-0.0680661 0.0245725 5.25033e-20)
(-0.058877 0.0246905 0)
(-0.0500618 0.0245229 0)
(-0.0416863 0.0239697 1.04979e-20)
(-0.0338178 0.022933 -8.82317e-20)
(-0.0265252 0.0213258 7.55735e-23)
(-0.0198797 0.0190776 1.07918e-19)
(-0.0139498 0.0161409 -1.2399e-20)
(-0.00879601 0.0124934 0)
(-0.00453751 0.00811109 -5.19102e-20)
(-0.00137739 0.00295043 4.24773e-20)
(-0.155012 0.0111159 0)
(-0.145905 0.0115587 0)
(-0.136345 0.0119212 6.39349e-20)
(-0.126615 0.0121997 -7.08034e-20)
(-0.116828 0.0124093 -2.0608e-22)
(-0.107123 0.0125839 -2.14394e-22)
(-0.0975811 0.0127524 2.35364e-20)
(-0.0882614 0.0129369 0)
(-0.0792005 0.0131469 -2.81019e-20)
(-0.0704236 0.0133769 7.61107e-20)
(-0.0619518 0.0136054 -4.91068e-20)
(-0.0538089 0.0137956 0)
(-0.0460252 0.0138966 8.44608e-20)
(-0.03864 0.0138466 -1.59374e-19)
(-0.0317009 0.0135777 7.36534e-20)
(-0.0252627 0.013022 4.42073e-20)
(-0.019384 0.0121183 -4.04394e-20)
(-0.0141268 0.0108207 -1.2e-20)
(-0.00954991 0.0091064 0)
(-0.00570509 0.00698205 6.37202e-21)
(-0.00270284 0.00446364 0)
(-0.000747615 0.00156564 -2.65108e-21)
(-0.114306 0.00476589 1.25418e-20)
(-0.105957 0.00484134 -7.44876e-21)
(-0.0976629 0.00488617 6.39365e-20)
(-0.0896159 0.00489528 -3.53748e-20)
(-0.0818203 0.00488396 6.88576e-20)
(-0.0743261 0.00486871 -4.31428e-20)
(-0.0671429 0.00486283 0)
(-0.0602715 0.00487637 5.19289e-20)
(-0.053702 0.00491434 -5.62851e-20)
(-0.0474215 0.00497589 0)
(-0.0414198 0.00505359 -3.2917e-20)
(-0.0356938 0.00513304 7.05371e-20)
(-0.0302515 0.00519266 -4.70253e-20)
(-0.0251134 0.0052041 -5.00632e-21)
(-0.0203123 0.00513336 4.21975e-20)
(-0.0158913 0.00494322 -4.43309e-20)
(-0.0119007 0.00459733 -8.6854e-21)
(-0.0083939 0.00406665 -3.01301e-21)
(-0.00542004 0.00334026 0)
(-0.00301571 0.00243794 -6.37285e-21)
(-0.00125427 0.00141131 -3.26404e-21)
(-0.00029179 0.000366558 2.647e-21)
(-0.0467998 0.000714124 -1.25372e-20)
(-0.0429459 0.000703158 7.21594e-21)
(-0.0391671 0.00068537 0)
(-0.0356078 0.000659558 -3.4523e-20)
(-0.0322402 0.000632462 9.35155e-21)
(-0.0290761 0.000608073 2.0892e-20)
(-0.0261034 0.00058907 2.29004e-20)
(-0.0233082 0.000577536 -2.49539e-20)
(-0.0206723 0.000574927 -1.06035e-22)
(-0.0181772 0.000582073 -5.73001e-23)
(-0.0158066 0.000598965 0)
(-0.0135484 0.000624427 0)
(-0.0113968 0.000655657 3.51846e-23)
(-0.00935438 0.000687679 4.76576e-21)
(-0.00743268 0.000712777 -3.93748e-23)
(-0.00565316 0.000720134 0)
(-0.00404654 0.000696064 2.75538e-21)
(-0.00265152 0.000625657 2.85048e-21)
(-0.00151005 0.000497564 4.73627e-20)
(-0.000657916 0.000312643 -4.87526e-20)
(-0.000132636 9.51943e-05 5.28622e-20)
(1.546e-05 -7.17172e-05 -4.10005e-20)
(1.13622 0.0237595 -3.22842e-20)
(1.09016 0.0253841 -4.59568e-22)
(1.04205 0.0270563 -8.32574e-22)
(0.991806 0.0287775 4.95619e-20)
(0.93952 0.0305532 2.83803e-20)
(0.885282 0.03239 0)
(0.829183 0.0342904 1.80871e-20)
(0.771332 0.0362554 0)
(0.711846 0.0382845 5.51964e-24)
(0.650854 0.0403749 2.53281e-20)
(0.588502 0.0425189 5.93397e-22)
(0.524956 0.0446935 -6.00454e-20)
(0.460432 0.0468379 4.88937e-20)
(0.395263 0.0488168 -3.47943e-20)
(0.33 0.0503799 4.5699e-24)
(0.265547 0.0511362 3.99372e-20)
(0.203268 0.0505646 -4.17086e-20)
(0.145046 0.0480666 0)
(0.0931437 0.0430568 0)
(0.0499624 0.0350614 -2.3671e-20)
(0.0187411 0.0237772 2.42048e-20)
(0.00351876 0.00911862 0)
(1.14062 0.079743 6.48545e-20)
(1.095 0.0854841 -5.77209e-20)
(1.04751 0.0914997 -4.27962e-22)
(0.997842 0.0977598 -7.42492e-20)
(0.946138 0.104257 -8.59359e-20)
(0.892484 0.110996 -4.4276e-22)
(0.83697 0.117973 -1.8078e-20)
(0.779705 0.125181 8.17737e-20)
(0.720807 0.132613 -4.20954e-20)
(0.660406 0.140254 -1.48209e-19)
(0.598644 0.14807 -1.15885e-21)
(0.535682 0.155976 8.95e-20)
(0.471724 0.163744 -4.77282e-20)
(0.40707 0.170887 0)
(0.342214 0.176508 7.4547e-20)
(0.277968 0.179227 -3.93765e-20)
(0.215576 0.177221 2.04688e-20)
(0.156777 0.168415 0)
(0.103689 0.150793 -2.22623e-20)
(0.0585891 0.122731 0)
(0.0246286 0.083205 0)
(0.00580493 0.0319407 -7.88774e-20)
(1.14928 0.135734 -6.47122e-20)
(1.10462 0.145608 0)
(1.05837 0.15589 4.30589e-20)
(1.00988 0.166571 4.91967e-20)
(0.959349 0.17764 0)
(0.906881 0.189109 6.32982e-20)
(0.852562 0.200975 -7.16639e-20)
(0.796502 0.213232 1.5577e-19)
(0.738819 0.225867 2.19905e-19)
(0.679642 0.238856 -9.59759e-20)
(0.619109 0.252148 0)
(0.55737 0.265593 2.93898e-20)
(0.494599 0.278807 0)
(0.43103 0.290954 -6.9782e-20)
(0.367036 0.300505 1.43972e-19)
(0.30324 0.305107 -1.93031e-19)
(0.240633 0.301653 1.00918e-19)
(0.180665 0.286617 -1.69611e-19)
(0.125161 0.256576 1.97596e-19)
(0.0761484 0.208782 0)
(0.0366064 0.141513 0)
(0.0104546 0.0543198 9.58799e-20)
(1.16129 0.188989 1.27495e-19)
(1.11817 0.202875 3.05256e-21)
(1.07387 0.217283 8.5025e-23)
(1.02723 0.232266 9.64897e-20)
(0.978549 0.247799 -1.05926e-19)
(0.927924 0.263895 1.1956e-19)
(0.875448 0.28055 6.71959e-20)
(0.821237 0.297756 -7.76405e-20)
(0.76541 0.315495 -8.6336e-20)
(0.708098 0.333734 0)
(0.649434 0.3524 0)
(0.589552 0.371283 0)
(0.528582 0.389846 5.95471e-20)
(0.46666 0.40691 1.11101e-21)
(0.403978 0.420329 -3.47379e-19)
(0.340878 0.426799 1.47312e-19)
(0.277974 0.421963 1.95742e-19)
(0.216278 0.40089 -1.62263e-19)
(0.157181 0.358803 4.11843e-20)
(0.10234 0.291889 -1.7548e-19)
(0.0544753 0.197781 1.79575e-19)
(0.0173888 0.0758909 -1.67223e-19)
(1.17661 0.239644 4.51818e-22)
(1.13555 0.257412 -2.12987e-19)
(1.09384 0.275747 7.56737e-20)
(1.04966 0.294827 1.85463e-19)
(1.00342 0.314607 -2.03615e-19)
(0.955242 0.335104 -2.37756e-19)
(0.905211 0.356318 -1.98944e-19)
(0.853452 0.378236 -1.47071e-19)
(0.80009 0.40084 1.61026e-19)
(0.745253 0.42409 0)
(0.689071 0.447893 0)
(0.631657 0.471985 0)
(0.573084 0.495678 -5.93718e-20)
(0.513357 0.517469 6.37896e-20)
(0.452431 0.534613 6.80408e-20)
(0.390272 0.542886 2.81941e-19)
(0.326996 0.536732 -3.66215e-19)
(0.263043 0.509868 7.46365e-20)
(0.199229 0.456238 1.19463e-19)
(0.136731 0.371035 -1.65284e-19)
(0.0779334 0.251314 0)
(0.0264863 0.0963873 0)
(1.1948 0.286409 2.33965e-19)
(1.15635 0.307887 -6.63673e-22)
(1.11785 0.329911 0)
(1.07671 0.352856 0)
(1.03349 0.376644 1.99869e-19)
(0.988337 0.401295 -2.18782e-19)
(0.94133 0.426812 1.27599e-19)
(0.892601 0.453184 1.36796e-19)
(0.84228 0.480389 1.52486e-19)
(0.790496 0.508385 1.71595e-19)
(0.737375 0.537061 3.14418e-21)
(0.683005 0.566104 -2.00854e-19)
(0.62739 0.594687 1.1408e-19)
(0.570378 0.620999 2.04982e-21)
(0.511628 0.641729 6.15938e-20)
(0.450647 0.651773 -2.62553e-19)
(0.386937 0.644429 3.47863e-19)
(0.320231 0.612137 -6.50518e-19)
(0.250648 0.547637 2.26826e-19)
(0.178778 0.445218 0)
(0.106604 0.30143 -3.20181e-19)
(0.0375949 0.115544 3.93683e-19)
(1.21545 0.328707 1.5827e-21)
(1.18009 0.353666 -1.28705e-19)
(1.14535 0.379082 1.45929e-19)
(1.10777 0.405599 -3.26668e-19)
(1.06811 0.433095 3.70062e-19)
(1.0265 0.461595 -2.05614e-19)
(0.983038 0.491109 2.36633e-19)
(0.937868 0.521624 -6.5481e-19)
(0.891124 0.553118 5.76529e-19)
(0.842936 0.585545 -4.67297e-19)
(0.793425 0.618781 0)
(0.742651 0.652468 1.8915e-19)
(0.690538 0.685658 1.06817e-19)
(0.636749 0.716254 1.29363e-21)
(0.580597 0.740414 -2.89374e-19)
(0.521048 0.752209 0)
(0.456879 0.743854 0)
(0.386989 0.706584 0)
(0.31068 0.632028 3.45585e-19)
(0.227866 0.513659 -2.15309e-19)
(0.140069 0.347612 0)
(0.0505497 0.133167 0)
(1.23785 0.365842 1.04107e-19)
(1.20609 0.394036 0)
(1.17564 0.42253 -1.29481e-19)
(1.14211 0.452296 -3.01594e-19)
(1.1065 0.483155 1.69723e-19)
(1.06892 0.515142 -1.86689e-19)
(1.02949 0.548275 1.04289e-19)
(0.988359 0.582547 -1.27484e-19)
(0.945669 0.617938 3.91523e-19)
(0.901556 0.654403 2.91825e-19)
(0.856136 0.691814 0)
(0.809445 0.729778 0)
(0.761319 0.767242 8.8268e-20)
(0.711219 0.801857 0)
(0.658069 0.829296 0)
(0.600217 0.84286 0)
(0.535611 0.833747 0)
(0.462198 0.792067 0)
(0.378347 0.708426 -5.77023e-20)
(0.283212 0.575576 -7.52286e-21)
(0.1778 0.389333 6.13238e-20)
(0.0651432 0.149055 2.17825e-19)
(1.26127 0.397246 1.91475e-19)
(1.23357 0.428345 -5.33723e-19)
(1.20782 0.459549 2.50138e-19)
(1.17874 0.492208 2.87962e-19)
(1.14756 0.526079 -1.56437e-19)
(1.11443 0.561205 3.5556e-19)
(1.07945 0.597608 -1.03253e-19)
(1.0428 0.635281 1.07333e-19)
(1.00462 0.674207 -3.67335e-19)
(0.965051 0.714339 -4.05653e-19)
(0.924206 0.755545 1.50051e-19)
(0.882092 0.79741 0)
(0.838454 0.838796 -2.54045e-19)
(0.792533 0.877141 1.76892e-19)
(0.742824 0.907684 2.72986e-19)
(0.686984 0.923025 -1.95328e-19)
(0.622035 0.913419 9.427e-20)
(0.544856 0.867939 -2.56682e-19)
(0.45278 0.776256 2.23588e-19)
(0.344123 0.630503 -8.06914e-21)
(0.219336 0.426277 -8.3977e-21)
(0.0811962 0.163096 0)
(1.28482 0.422764 -3.47222e-19)
(1.26166 0.456485 6.06303e-19)
(1.24102 0.490046 -1.0887e-19)
(1.21681 0.5252 -1.26711e-19)
(1.19048 0.561632 -2.84479e-19)
(1.16215 0.599408 -8.73953e-21)
(1.13197 0.638571 1.71611e-19)
(1.10012 0.679124 0)
(1.06676 0.72106 0)
(1.03206 0.764344 0)
(0.996114 0.808845 5.14855e-19)
(0.958924 0.854141 -5.51988e-19)
(0.920146 0.899039 2.25625e-19)
(0.878798 0.940805 0)
(0.832923 0.974303 -8.68349e-20)
(0.779435 0.991495 7.79919e-20)
(0.714334 0.981763 -9.37385e-20)
(0.633316 0.933213 2.25653e-19)
(0.532566 0.834672 -3.16899e-19)
(0.40949 0.677757 1.37355e-19)
(0.263942 0.457967 -5.27949e-20)
(0.0984225 0.175094 0)
(1.30759 0.441912 -1.51168e-19)
(1.28933 0.477806 -1.75078e-19)
(1.27399 0.513337 0)
(1.25487 0.550659 1.11258e-19)
(1.23365 0.589355 1.36522e-19)
(1.21045 0.629497 -1.46569e-19)
(1.18542 0.671123 -1.71397e-19)
(1.15876 0.714239 1.76466e-19)
(1.13065 0.758841 1.9413e-19)
(1.10124 0.804899 1.25582e-22)
(1.07065 0.852291 -1.21062e-19)
(1.03885 0.900593 -3.69065e-19)
(1.00541 0.94858 3.24498e-19)
(0.969122 0.99339 6.15773e-20)
(0.927549 1.02958 -6.34296e-20)
(0.8768 1.04854 -7.73871e-20)
(0.811764 1.0389 0)
(0.726858 0.987878 0)
(0.617032 0.883573 1.48844e-19)
(0.478735 0.717197 -1.20093e-19)
(0.31121 0.484279 0)
(0.116659 0.185007 0)
(1.32866 0.455429 1.48915e-19)
(1.3159 0.493271 1.40943e-20)
(1.30625 0.530354 1.77962e-19)
(1.29253 0.569283 -1.09574e-19)
(1.27664 0.609602 -1.1118e-19)
(1.25869 0.651429 2.53281e-19)
(1.23889 0.694827 -6.98387e-21)
(1.21748 0.739817 0)
(1.19466 0.786409 9.77664e-21)
(1.1706 0.834583 -2.68759e-19)
(1.14545 0.884238 0)
(1.11915 0.934972 -1.11107e-19)
(1.09123 0.985564 0)
(1.06027 1.03308 1.58126e-19)
(1.02337 1.07184 -1.69531e-19)
(0.975806 1.09275 0)
(0.911283 1.08368 0)
(0.822807 1.03104 -5.04661e-20)
(0.703967 0.922241 0)
(0.550175 0.748233 -3.37467e-20)
(0.360046 0.504759 1.46789e-19)
(0.135483 0.19263 -2.04542e-19)
(1.34708 0.462173 -2.60981e-19)
(1.3399 0.501498 1.596e-19)
(1.33583 0.540013 -6.69659e-21)
(1.32773 0.580514 -9.14288e-20)
(1.31747 0.622437 2.08912e-19)
(1.30516 0.665898 -2.35186e-19)
(1.29104 0.710966 -1.47214e-20)
(1.27534 0.757674 0)
(1.25829 0.806043 1.98205e-20)
(1.24007 0.856063 -7.09305e-20)
(1.22084 0.907644 9.09757e-20)
(1.20054 0.960401 0)
(1.17863 1.01312 0)
(1.15348 1.06283 -9.49814e-20)
(1.12168 1.10364 3.62635e-19)
(1.07762 1.12607 -1.85658e-19)
(1.01375 1.11739 3.71511e-20)
(0.921597 1.06335 5.00589e-20)
(0.793387 0.950889 1.14579e-19)
(0.623536 0.770826 -1.0037e-19)