/*--------------------------------*- C++ -*----------------------------------*\
| =========                 |                                                 |
| \\      /  F ield         | OpenFOAM Extend Project: Open source CFD        |
|  \\    /   O peration     | Version:  1.6-ext                               |
|   \\  /    A nd           | Web:      www.extend-project.de                 |
|    \\/     M anipulation  |                                                 |
\*---------------------------------------------------------------------------*/
FoamFile
{
    version     2.0;
    format      ascii;
    class       volScalarField::DimensionedInternalField;
    location    "0.75";
    object      V0;
}
// * * * * * * * * * * * * * * * * * * * * * * * * * * * * * * * * * * * * * //

dimensions      [0 3 0 0 0 0 0];

value           nonuniform List<scalar> 
20940
(
1.17119e-06
1.03816e-06
9.21116e-07
8.18072e-07
7.27291e-07
6.47256e-07
5.76643e-07
5.14293e-07
4.59194e-07
4.10464e-07
3.67327e-07
3.29109e-07
2.95217e-07
2.65133e-07
2.38402e-07
2.14625e-07
1.93454e-07
1.74582e-07
1.5774e-07
1.42693e-07
1.29235e-07
1.17185e-07
1.17136e-06
1.03831e-06
9.21244e-07
8.18186e-07
7.27393e-07
6.47349e-07
5.76729e-07
5.14374e-07
4.59272e-07
4.10538e-07
3.67398e-07
3.29175e-07
2.95277e-07
2.65187e-07
2.3845e-07
2.14669e-07
1.93494e-07
1.7462e-07
1.57777e-07
1.4273e-07
1.29271e-07
1.17219e-07
1.17394e-06
1.04059e-06
9.23273e-07
8.19988e-07
7.28997e-07
6.48779e-07
5.78005e-07
5.15516e-07
4.60296e-07
4.11458e-07
3.68227e-07
3.29923e-07
2.95952e-07
2.65796e-07
2.38999e-07
2.15164e-07
1.93941e-07
1.75024e-07
1.58144e-07
1.43064e-07
1.29577e-07
1.175e-07
1.17822e-06
1.04438e-06
9.26638e-07
8.22978e-07
7.31657e-07
6.51148e-07
5.80118e-07
5.17402e-07
4.61983e-07
4.12969e-07
3.69582e-07
3.31141e-07
2.9705e-07
2.66787e-07
2.39894e-07
2.15972e-07
1.94671e-07
1.75683e-07
1.58741e-07
1.43606e-07
1.3007e-07
1.1795e-07
1.18348e-06
1.04908e-06
9.3084e-07
8.26742e-07
7.35035e-07
6.54185e-07
5.82851e-07
5.19865e-07
4.64203e-07
4.14974e-07
3.71394e-07
3.32782e-07
2.98538e-07
2.68139e-07
2.41126e-07
2.17096e-07
1.95696e-07
1.7662e-07
1.59595e-07
1.44385e-07
1.30782e-07
1.18601e-07
1.19031e-06
1.0552e-06
9.36328e-07
8.3167e-07
7.39468e-07
6.58179e-07
5.86457e-07
5.23126e-07
4.67157e-07
4.17651e-07
3.73824e-07
3.34989e-07
3.00546e-07
2.69967e-07
2.42792e-07
2.18618e-07
1.97089e-07
1.77895e-07
1.60764e-07
1.45456e-07
1.31762e-07
1.19498e-07
1.19868e-06
1.06273e-06
9.4311e-07
8.37783e-07
7.44982e-07
6.6316e-07
5.90964e-07
5.27213e-07
4.70871e-07
4.21032e-07
3.76907e-07
3.37802e-07
3.03115e-07
2.72315e-07
2.4494e-07
2.20584e-07
1.98891e-07
1.79549e-07
1.62283e-07
1.46853e-07
1.33046e-07
1.20679e-07
1.20859e-06
1.0717e-06
9.51238e-07
8.45152e-07
7.51666e-07
6.69223e-07
5.96468e-07
5.32213e-07
4.7542e-07
4.2518e-07
3.80696e-07
3.41271e-07
3.06294e-07
2.75231e-07
2.47617e-07
2.23043e-07
2.01151e-07
1.81627e-07
1.64196e-07
1.48615e-07
1.34672e-07
1.22181e-07
1.21996e-06
1.08205e-06
9.60659e-07
8.53747e-07
7.59514e-07
6.76395e-07
6.03022e-07
5.38201e-07
4.8089e-07
4.30178e-07
3.85267e-07
3.45458e-07
3.10137e-07
2.78766e-07
2.50871e-07
2.26042e-07
2.03916e-07
1.84178e-07
1.6655e-07
1.5079e-07
1.36684e-07
1.24042e-07
1.23272e-06
1.0937e-06
9.71322e-07
8.63514e-07
7.68475e-07
6.84627e-07
6.10594e-07
5.45169e-07
4.87303e-07
4.36077e-07
3.90691e-07
3.50443e-07
3.14721e-07
2.82985e-07
2.54762e-07
2.29634e-07
2.07238e-07
1.87252e-07
1.69396e-07
1.53426e-07
1.39124e-07
1.26303e-07
1.24669e-06
1.10653e-06
9.8312e-07
8.74371e-07
7.78474e-07
6.93848e-07
6.19108e-07
5.53041e-07
4.9459e-07
4.42827e-07
3.96945e-07
3.56234e-07
3.20077e-07
2.87936e-07
2.59337e-07
2.33866e-07
2.11156e-07
1.90884e-07
1.72766e-07
1.56553e-07
1.42028e-07
1.28999e-07
1.2623e-06
1.12094e-06
9.96422e-07
8.86654e-07
7.8982e-07
7.04331e-07
6.28799e-07
5.62008e-07
5.02896e-07
4.50531e-07
4.04098e-07
3.62882e-07
3.26257e-07
2.93678e-07
2.64667e-07
2.38807e-07
2.15735e-07
1.95129e-07
1.76704e-07
1.6021e-07
1.45426e-07
1.32158e-07
1.27874e-06
1.13624e-06
1.01066e-06
8.99901e-07
8.02145e-07
7.15795e-07
6.39459e-07
5.71917e-07
5.12107e-07
4.59096e-07
4.12066e-07
3.70302e-07
3.33175e-07
3.00132e-07
2.7069e-07
2.44425e-07
2.20969e-07
1.99999e-07
1.81234e-07
1.64423e-07
1.49347e-07
1.3581e-07
1.29606e-06
1.15245e-06
1.02584e-06
9.14111e-07
8.15449e-07
7.28249e-07
6.51112e-07
5.82816e-07
5.22291e-07
4.68603e-07
4.20938e-07
3.78578e-07
3.40897e-07
3.07343e-07
2.77428e-07
2.50726e-07
2.26863e-07
2.0551e-07
1.8638e-07
1.69225e-07
1.53823e-07
1.39981e-07
1.31402e-06
1.1694e-06
1.04181e-06
9.29155e-07
8.29607e-07
7.41571e-07
6.63642e-07
5.94597e-07
5.33365e-07
4.79003e-07
4.30696e-07
3.87722e-07
3.49457e-07
3.1535e-07
2.84917e-07
2.57734e-07
2.33424e-07
2.11657e-07
1.92139e-07
1.74617e-07
1.58866e-07
1.44692e-07
1.24237e-06
1.10827e-06
9.8977e-07
8.84961e-07
7.9218e-07
7.09972e-07
6.37063e-07
5.72338e-07
5.14821e-07
4.63652e-07
4.1808e-07
3.77444e-07
3.41169e-07
3.0875e-07
2.79744e-07
2.53765e-07
2.30471e-07
2.09559e-07
1.90762e-07
1.73843e-07
1.58593e-07
1.44829e-07
1.21929e-06
1.08716e-06
9.70439e-07
8.67243e-07
7.75924e-07
6.95039e-07
6.23331e-07
5.59698e-07
5.03176e-07
4.52917e-07
4.0818e-07
3.68313e-07
3.32744e-07
3.0097e-07
2.72554e-07
2.47112e-07
2.24306e-07
2.03841e-07
1.85456e-07
1.6892e-07
1.54027e-07
1.40597e-07
1.19733e-06
1.06712e-06
9.52138e-07
8.50509e-07
7.6061e-07
6.81012e-07
6.1047e-07
5.4789e-07
4.9232e-07
4.42926e-07
3.98977e-07
3.59831e-07
3.24922e-07
2.93757e-07
2.65899e-07
2.40968e-07
2.18628e-07
1.98587e-07
1.80589e-07
1.64407e-07
1.49842e-07
1.36717e-07
1.17662e-06
1.04828e-06
9.34965e-07
8.34846e-07
7.46305e-07
6.67937e-07
5.98507e-07
5.36936e-07
4.82278e-07
4.33708e-07
3.90505e-07
3.52034e-07
3.17741e-07
2.87138e-07
2.59797e-07
2.35341e-07
2.13438e-07
1.93798e-07
1.76165e-07
1.60315e-07
1.46052e-07
1.33202e-07
1.15732e-06
1.03075e-06
9.19026e-07
8.20337e-07
7.33084e-07
6.55873e-07
5.87487e-07
5.2686e-07
4.73059e-07
4.25266e-07
3.82765e-07
3.44929e-07
3.11212e-07
2.81131e-07
2.54265e-07
2.30242e-07
2.08738e-07
1.89463e-07
1.72167e-07
1.56625e-07
1.42643e-07
1.30047e-07
1.13921e-06
1.01435e-06
9.0417e-07
8.06855e-07
7.20836e-07
6.44732e-07
5.7734e-07
5.17607e-07
4.64612e-07
4.17547e-07
3.75705e-07
3.38467e-07
3.0529e-07
2.75699e-07
2.49275e-07
2.25654e-07
2.04513e-07
1.85571e-07
1.68578e-07
1.53316e-07
1.39591e-07
1.27232e-07
1.12312e-06
9.99797e-07
8.90986e-07
7.94898e-07
7.09978e-07
6.34861e-07
5.68356e-07
5.0942e-07
4.57141e-07
4.10722e-07
3.69464e-07
3.32755e-07
3.00056e-07
2.70899e-07
2.4487e-07
2.21607e-07
2.00791e-07
1.82143e-07
1.65418e-07
1.50399e-07
1.36899e-07
1.24746e-07
1.10843e-06
9.8655e-07
8.79018e-07
7.84076e-07
7.00178e-07
6.25975e-07
5.60287e-07
5.02085e-07
4.50466e-07
4.0464e-07
3.63915e-07
3.27686e-07
2.95422e-07
2.66658e-07
2.40985e-07
2.18044e-07
1.97522e-07
1.7914e-07
1.62656e-07
1.47857e-07
1.34554e-07
1.22583e-07
1.09537e-06
9.74788e-07
8.68413e-07
7.74502e-07
6.91524e-07
6.18143e-07
5.53191e-07
4.95648e-07
4.44619e-07
3.99321e-07
3.59071e-07
3.2327e-07
2.91391e-07
2.62974e-07
2.37615e-07
2.14958e-07
1.94693e-07
1.76546e-07
1.60275e-07
1.45668e-07
1.32541e-07
1.20728e-07
1.08393e-06
9.64502e-07
8.59157e-07
7.6616e-07
6.83997e-07
6.11343e-07
5.47042e-07
4.90079e-07
4.39569e-07
3.94737e-07
3.54904e-07
3.19477e-07
2.87935e-07
2.59821e-07
2.34734e-07
2.12324e-07
1.92282e-07
1.74336e-07
1.58248e-07
1.43809e-07
1.30833e-07
1.19158e-07
1.07407e-06
9.55661e-07
8.51214e-07
7.59016e-07
6.77564e-07
6.05543e-07
5.41804e-07
4.85344e-07
4.35282e-07
3.90851e-07
3.51379e-07
3.16274e-07
2.8502e-07
2.57166e-07
2.32313e-07
2.10113e-07
1.90261e-07
1.72487e-07
1.56555e-07
1.42256e-07
1.29408e-07
1.17849e-07
1.06576e-06
9.48211e-07
8.44533e-07
7.53018e-07
6.7217e-07
6.00688e-07
5.37429e-07
4.81395e-07
4.31714e-07
3.87623e-07
3.48454e-07
3.1362e-07
2.8261e-07
2.54973e-07
2.30317e-07
2.08293e-07
1.886e-07
1.70968e-07
1.55166e-07
1.40985e-07
1.28243e-07
1.16781e-07
1.05893e-06
9.42096e-07
8.39055e-07
7.48105e-07
6.67759e-07
5.96722e-07
5.33858e-07
4.78177e-07
4.28811e-07
3.85001e-07
3.46082e-07
3.11472e-07
2.80662e-07
2.53205e-07
2.28708e-07
2.06829e-07
1.87264e-07
1.6975e-07
1.54051e-07
1.39966e-07
1.2731e-07
1.15928e-07
1.05356e-06
9.37301e-07
8.34759e-07
7.44252e-07
6.64301e-07
5.93614e-07
5.31062e-07
4.75658e-07
4.2654e-07
3.8295e-07
3.44228e-07
3.09794e-07
2.79142e-07
2.51825e-07
2.27455e-07
2.05688e-07
1.86225e-07
1.68801e-07
1.53185e-07
1.39171e-07
1.26581e-07
1.15257e-07
1.04897e-06
9.33227e-07
8.31134e-07
7.41022e-07
6.61421e-07
5.91042e-07
5.28762e-07
4.73599e-07
4.24693e-07
3.81292e-07
3.42737e-07
3.08452e-07
2.77932e-07
2.50733e-07
2.26468e-07
2.04796e-07
1.85417e-07
1.6807e-07
1.52521e-07
1.38569e-07
1.26034e-07
1.14727e-07
1.17427e-06
1.04681e-06
9.34194e-07
8.34619e-07
7.46499e-07
6.68446e-07
5.99249e-07
5.37845e-07
4.83305e-07
4.34812e-07
3.91652e-07
3.53199e-07
3.18902e-07
2.88279e-07
2.60904e-07
2.36408e-07
2.1446e-07
1.94774e-07
1.77095e-07
1.612e-07
1.46892e-07
1.33996e-07
1.17456e-06
1.04708e-06
9.34453e-07
8.34862e-07
7.46726e-07
6.68659e-07
5.99448e-07
5.38031e-07
4.83479e-07
4.34974e-07
3.91804e-07
3.53341e-07
3.19035e-07
2.88402e-07
2.61021e-07
2.36516e-07
2.14562e-07
1.94868e-07
1.77184e-07
1.61283e-07
1.46968e-07
1.34068e-07
1.17731e-06
1.04956e-06
9.36683e-07
8.36875e-07
7.48546e-07
6.70306e-07
6.0094e-07
5.39385e-07
4.84708e-07
4.36092e-07
3.92821e-07
3.54267e-07
3.19879e-07
2.89174e-07
2.61725e-07
2.37161e-07
2.15152e-07
1.9541e-07
1.7768e-07
1.61739e-07
1.47388e-07
1.34454e-07
1.1819e-06
1.05368e-06
9.40394e-07
8.40215e-07
7.51555e-07
6.7302e-07
6.03391e-07
5.41601e-07
4.86714e-07
4.3791e-07
3.94471e-07
3.55766e-07
3.21243e-07
2.90415e-07
2.62857e-07
2.38194e-07
2.16095e-07
1.96272e-07
1.78469e-07
1.62461e-07
1.48051e-07
1.35062e-07
1.18775e-06
1.05896e-06
9.45168e-07
8.44537e-07
7.55473e-07
6.76577e-07
6.06623e-07
5.44541e-07
4.89392e-07
4.40351e-07
3.96699e-07
3.57801e-07
3.23104e-07
2.92118e-07
2.64418e-07
2.39625e-07
2.17409e-07
1.97479e-07
1.79579e-07
1.63482e-07
1.48991e-07
1.35929e-07
1.19549e-06
1.06596e-06
9.51506e-07
8.50284e-07
7.60689e-07
6.81316e-07
6.10935e-07
5.48468e-07
4.92971e-07
4.43618e-07
3.99683e-07
3.60531e-07
3.25602e-07
2.94408e-07
2.66517e-07
2.41552e-07
2.19179e-07
1.99107e-07
1.81076e-07
1.64862e-07
1.50261e-07
1.371e-07
1.20512e-06
1.0747e-06
9.59437e-07
8.57492e-07
7.67247e-07
6.87289e-07
6.16381e-07
5.53439e-07
4.97514e-07
4.47773e-07
4.03487e-07
3.64016e-07
3.288e-07
2.97343e-07
2.69214e-07
2.44032e-07
2.21461e-07
2.01208e-07
1.83013e-07
1.66648e-07
1.5191e-07
1.38622e-07
1.21674e-06
1.08527e-06
9.69055e-07
8.66255e-07
7.75241e-07
6.94588e-07
6.23053e-07
5.59543e-07
5.03104e-07
4.52897e-07
4.08188e-07
3.68333e-07
3.32767e-07
3.00992e-07
2.72573e-07
2.47126e-07
2.24313e-07
2.03839e-07
1.85442e-07
1.68891e-07
1.53983e-07
1.40539e-07
1.23042e-06
1.09773e-06
9.80429e-07
8.76646e-07
7.84743e-07
7.03286e-07
6.31022e-07
5.66852e-07
5.09812e-07
4.5906e-07
4.13854e-07
3.73547e-07
3.37567e-07
3.05416e-07
2.76652e-07
2.5089e-07
2.27789e-07
2.07051e-07
1.8841e-07
1.71637e-07
1.56524e-07
1.42892e-07
1.24616e-06
1.11212e-06
9.936e-07
8.88711e-07
7.95805e-07
7.13437e-07
6.40346e-07
5.75422e-07
5.17696e-07
4.66318e-07
4.20542e-07
3.79712e-07
3.43256e-07
3.10667e-07
2.81503e-07
2.55374e-07
2.31936e-07
2.10887e-07
1.91962e-07
1.74926e-07
1.59572e-07
1.45718e-07
1.2638e-06
1.12831e-06
1.00847e-06
9.02374e-07
8.08372e-07
7.25005e-07
6.51001e-07
5.85244e-07
5.26757e-07
4.74682e-07
4.28266e-07
3.86851e-07
3.49857e-07
3.16775e-07
2.87156e-07
2.60609e-07
2.36786e-07
2.15383e-07
1.96131e-07
1.78794e-07
1.63161e-07
1.49049e-07
1.28383e-06
1.14671e-06
1.02539e-06
9.17951e-07
8.22719e-07
7.3823e-07
6.63199e-07
5.96503e-07
5.37155e-07
4.8429e-07
4.37151e-07
3.95071e-07
3.57465e-07
3.2382e-07
2.93683e-07
2.66659e-07
2.42396e-07
2.20586e-07
2.0096e-07
1.83275e-07
1.67323e-07
1.52914e-07
1.30549e-06
1.1667e-06
1.04385e-06
9.35002e-07
8.38482e-07
7.5281e-07
6.76692e-07
6.08996e-07
5.48727e-07
4.95015e-07
4.47094e-07
4.04292e-07
3.66021e-07
3.31761e-07
3.01057e-07
2.73506e-07
2.48757e-07
2.26498e-07
2.06455e-07
1.88385e-07
1.72074e-07
1.57334e-07
1.3289e-06
1.18837e-06
1.06392e-06
9.5361e-07
8.55735e-07
7.68812e-07
6.9154e-07
6.22777e-07
5.61523e-07
5.069e-07
4.58135e-07
4.14553e-07
3.75559e-07
3.40629e-07
3.09303e-07
2.81178e-07
2.55895e-07
2.3314e-07
2.12636e-07
1.94139e-07
1.77432e-07
1.62323e-07
1.35385e-06
1.21157e-06
1.08549e-06
9.73659e-07
8.74381e-07
7.86157e-07
7.07678e-07
6.37796e-07
5.75502e-07
5.19912e-07
4.70251e-07
4.25835e-07
3.86065e-07
3.50415e-07
3.18419e-07
2.8967e-07
2.63808e-07
2.40514e-07
2.19508e-07
2.00544e-07
1.83402e-07
1.67889e-07
1.35386e-06
1.21157e-06
1.08549e-06
9.73662e-07
8.74383e-07
7.8616e-07
7.07681e-07
6.37798e-07
5.75504e-07
5.19914e-07
4.70252e-07
4.25836e-07
3.86067e-07
3.50416e-07
3.18421e-07
2.89672e-07
2.6381e-07
2.40516e-07
2.1951e-07
2.00546e-07
1.83404e-07
1.6789e-07
1.3289e-06
1.18838e-06
1.06393e-06
9.53617e-07
8.55742e-07
7.68819e-07
6.91547e-07
6.22784e-07
5.6153e-07
5.06905e-07
4.5814e-07
4.14558e-07
3.75564e-07
3.40634e-07
3.09309e-07
2.81183e-07
2.559e-07
2.33146e-07
2.12642e-07
1.94144e-07
1.77436e-07
1.62327e-07
1.3055e-06
1.16671e-06
1.04386e-06
9.35013e-07
8.38493e-07
7.52821e-07
6.76703e-07
6.09006e-07
5.48737e-07
4.95025e-07
4.47103e-07
4.04302e-07
3.6603e-07
3.3177e-07
3.01066e-07
2.73515e-07
2.48766e-07
2.26506e-07
2.06462e-07
1.88391e-07
1.7208e-07
1.57339e-07
1.28384e-06
1.14672e-06
1.0254e-06
9.17965e-07
8.22734e-07
7.38244e-07
6.63214e-07
5.96518e-07
5.37169e-07
4.84305e-07
4.37165e-07
3.95085e-07
3.57478e-07
3.23832e-07
2.93695e-07
2.6667e-07
2.42406e-07
2.20596e-07
2.00968e-07
1.83283e-07
1.67329e-07
1.5292e-07
1.26382e-06
1.12833e-06
1.00848e-06
9.02393e-07
8.0839e-07
7.25024e-07
6.5102e-07
5.85263e-07
5.26776e-07
4.747e-07
4.28285e-07
3.86869e-07
3.49873e-07
3.1679e-07
2.8717e-07
2.60622e-07
2.36798e-07
2.15393e-07
1.96141e-07
1.78802e-07
1.63169e-07
1.49056e-07
1.24618e-06
1.11214e-06
9.93623e-07
8.88735e-07
7.95829e-07
7.13461e-07
6.40369e-07
5.75445e-07
5.17718e-07
4.66339e-07
4.20562e-07
3.79732e-07
3.43274e-07
3.10684e-07
2.81519e-07
2.55389e-07
2.31949e-07
2.109e-07
1.91974e-07
1.74937e-07
1.59582e-07
1.45727e-07
1.23044e-06
1.09776e-06
9.8046e-07
8.76678e-07
7.84774e-07
7.03316e-07
6.31051e-07
5.66878e-07
5.09837e-07
4.59083e-07
4.13876e-07
3.73568e-07
3.37587e-07
3.05434e-07
2.7667e-07
2.50906e-07
2.27805e-07
2.07065e-07
1.88424e-07
1.71649e-07
1.56536e-07
1.42903e-07
1.21678e-06
1.0853e-06
9.69096e-07
8.66296e-07
7.7528e-07
6.94625e-07
6.23087e-07
5.59575e-07
5.03133e-07
4.52924e-07
4.08213e-07
3.68357e-07
3.32788e-07
3.01012e-07
2.72591e-07
2.47143e-07
2.2433e-07
2.03855e-07
1.85457e-07
1.68905e-07
1.53996e-07
1.40552e-07
1.20517e-06
1.07475e-06
9.59489e-07
8.57543e-07
7.67296e-07
6.87335e-07
6.16424e-07
5.53478e-07
4.9755e-07
4.47806e-07
4.03517e-07
3.64043e-07
3.28824e-07
2.97366e-07
2.69235e-07
2.44051e-07
2.2148e-07
2.01226e-07
1.83029e-07
1.66663e-07
1.51925e-07
1.38637e-07
1.19555e-06
1.06603e-06
9.5157e-07
8.50346e-07
7.60748e-07
6.81371e-07
6.10986e-07
5.48515e-07
4.93014e-07
4.43657e-07
3.99719e-07
3.60563e-07
3.25632e-07
2.94435e-07
2.66542e-07
2.41575e-07
2.19201e-07
1.99127e-07
1.81096e-07
1.6488e-07
1.50279e-07
1.37117e-07
1.18782e-06
1.05904e-06
9.4524e-07
8.44608e-07
7.5554e-07
6.7664e-07
6.06683e-07
5.44597e-07
4.89443e-07
4.40399e-07
3.96742e-07
3.57841e-07
3.2314e-07
2.92152e-07
2.64448e-07
2.39653e-07
2.17435e-07
1.97503e-07
1.79602e-07
1.63504e-07
1.49012e-07
1.35948e-07
1.18199e-06
1.05377e-06
9.40476e-07
8.40293e-07
7.51629e-07
6.7309e-07
6.03458e-07
5.41664e-07
4.86772e-07
4.37965e-07
3.94521e-07
3.55812e-07
3.21284e-07
2.90453e-07
2.62891e-07
2.38224e-07
2.16123e-07
1.96298e-07
1.78493e-07
1.62484e-07
1.48072e-07
1.35082e-07
1.17741e-06
1.04966e-06
9.3678e-07
8.36967e-07
7.48631e-07
6.70385e-07
6.01014e-07
5.39453e-07
4.84771e-07
4.36151e-07
3.92876e-07
3.54317e-07
3.19926e-07
2.89216e-07
2.61764e-07
2.37195e-07
2.15183e-07
1.95438e-07
1.77706e-07
1.61763e-07
1.47411e-07
1.34477e-07
1.17469e-06
1.04721e-06
9.34575e-07
8.34976e-07
7.46831e-07
6.68755e-07
5.99536e-07
5.38111e-07
4.83551e-07
4.35041e-07
3.91865e-07
3.53398e-07
3.19088e-07
2.88452e-07
2.61066e-07
2.36558e-07
2.146e-07
1.94904e-07
1.77216e-07
1.61311e-07
1.46996e-07
1.34093e-07
1.17442e-06
1.04696e-06
9.34343e-07
8.3476e-07
7.4663e-07
6.68566e-07
5.99358e-07
5.37943e-07
4.83392e-07
4.3489e-07
3.91723e-07
3.53264e-07
3.18962e-07
2.88335e-07
2.60958e-07
2.36459e-07
2.14507e-07
1.94818e-07
1.77134e-07
1.61235e-07
1.46922e-07
1.34023e-07
1.17417e-06
1.04671e-06
9.34096e-07
8.34522e-07
7.46403e-07
6.68354e-07
5.9916e-07
5.3776e-07
4.83224e-07
4.34736e-07
3.91581e-07
3.53133e-07
3.18842e-07
2.88225e-07
2.60856e-07
2.36364e-07
2.1442e-07
1.94737e-07
1.7706e-07
1.61166e-07
1.46859e-07
1.33964e-07
1.17446e-06
1.04698e-06
9.3435e-07
8.3476e-07
7.46626e-07
6.68562e-07
5.99356e-07
5.37944e-07
4.83397e-07
4.34899e-07
3.91735e-07
3.53278e-07
3.18978e-07
2.88351e-07
2.60974e-07
2.36473e-07
2.14522e-07
1.94832e-07
1.77149e-07
1.6125e-07
1.46938e-07
1.34039e-07
1.1772e-06
1.04945e-06
9.36578e-07
8.36772e-07
7.48446e-07
6.7021e-07
6.0085e-07
5.393e-07
4.84629e-07
4.36019e-07
3.92754e-07
3.54206e-07
3.19823e-07
2.89122e-07
2.61677e-07
2.37116e-07
2.15111e-07
1.95371e-07
1.77645e-07
1.61705e-07
1.47357e-07
1.34426e-07
1.1818e-06
1.05358e-06
9.4029e-07
8.40114e-07
7.51458e-07
6.72928e-07
6.03305e-07
5.41521e-07
4.86639e-07
4.3784e-07
3.94405e-07
3.55704e-07
3.21184e-07
2.9036e-07
2.62805e-07
2.38145e-07
2.1605e-07
1.96231e-07
1.78431e-07
1.62428e-07
1.4802e-07
1.35035e-07
1.18764e-06
1.05886e-06
9.45066e-07
8.44439e-07
7.5538e-07
6.76488e-07
6.0654e-07
5.44462e-07
4.89317e-07
4.40281e-07
3.96632e-07
3.57739e-07
3.23044e-07
2.92063e-07
2.64365e-07
2.39576e-07
2.17363e-07
1.97438e-07
1.79541e-07
1.63449e-07
1.48962e-07
1.35902e-07
1.19538e-06
1.06586e-06
9.51405e-07
8.50186e-07
7.60596e-07
6.81227e-07
6.10851e-07
5.48389e-07
4.92897e-07
4.43548e-07
3.99618e-07
3.60469e-07
3.25545e-07
2.94354e-07
2.66468e-07
2.41506e-07
2.19138e-07
1.99068e-07
1.81043e-07
1.6483e-07
1.50234e-07
1.37076e-07
1.20501e-06
1.07459e-06
9.59333e-07
8.57392e-07
7.67152e-07
6.87199e-07
6.16297e-07
5.5336e-07
4.9744e-07
4.47704e-07
4.03424e-07
3.63958e-07
3.28746e-07
2.97294e-07
2.69169e-07
2.43992e-07
2.21424e-07
2.01176e-07
1.82983e-07
1.66621e-07
1.51884e-07
1.386e-07
1.21663e-06
1.08516e-06
9.68949e-07
8.66153e-07
7.75144e-07
6.94497e-07
6.22967e-07
5.59463e-07
5.0303e-07
4.52829e-07
4.08126e-07
3.68277e-07
3.32716e-07
3.00946e-07
2.72531e-07
2.47089e-07
2.2428e-07
2.03809e-07
1.85415e-07
1.68865e-07
1.5396e-07
1.40518e-07
1.2303e-06
1.09762e-06
9.80321e-07
8.76543e-07
7.84645e-07
7.03194e-07
6.30936e-07
5.66772e-07
5.09739e-07
4.58993e-07
4.13794e-07
3.73492e-07
3.37519e-07
3.05372e-07
2.76613e-07
2.50854e-07
2.27758e-07
2.07022e-07
1.88384e-07
1.71613e-07
1.56502e-07
1.42872e-07
1.24604e-06
1.11201e-06
9.93491e-07
8.88607e-07
7.95706e-07
7.13345e-07
6.4026e-07
5.75343e-07
5.17624e-07
4.66252e-07
4.20482e-07
3.79659e-07
3.43207e-07
3.10624e-07
2.81464e-07
2.5534e-07
2.31905e-07
2.1086e-07
1.91937e-07
1.74904e-07
1.59552e-07
1.45699e-07
1.26369e-06
1.1282e-06
1.00836e-06
9.02272e-07
8.08275e-07
7.24914e-07
6.50917e-07
5.85166e-07
5.26685e-07
4.74616e-07
4.28207e-07
3.86797e-07
3.49809e-07
3.16731e-07
2.87118e-07
2.60574e-07
2.36756e-07
2.15355e-07
1.96107e-07
1.78772e-07
1.63142e-07
1.49032e-07
1.28372e-06
1.1466e-06
1.02529e-06
9.17851e-07
8.22624e-07
7.38141e-07
6.63117e-07
5.96427e-07
5.37085e-07
4.84226e-07
4.37092e-07
3.95017e-07
3.57416e-07
3.23776e-07
2.93644e-07
2.66623e-07
2.42364e-07
2.20559e-07
2.00935e-07
1.83254e-07
1.67304e-07
1.52898e-07
1.30538e-06
1.1666e-06
1.04375e-06
9.34906e-07
8.38391e-07
7.52724e-07
6.76612e-07
6.08922e-07
5.48659e-07
4.94952e-07
4.47036e-07
4.0424e-07
3.65974e-07
3.31718e-07
3.01018e-07
2.73471e-07
2.48726e-07
2.26471e-07
2.0643e-07
1.88363e-07
1.72055e-07
1.57318e-07
1.3288e-06
1.18827e-06
1.06383e-06
9.53517e-07
8.55646e-07
7.68729e-07
6.91462e-07
6.22705e-07
5.61457e-07
5.06838e-07
4.58079e-07
4.14502e-07
3.75513e-07
3.40587e-07
3.09266e-07
2.81144e-07
2.55865e-07
2.33113e-07
2.12613e-07
1.94118e-07
1.77413e-07
1.62307e-07
1.35376e-06
1.21147e-06
1.08539e-06
9.73569e-07
8.74295e-07
7.86076e-07
7.07602e-07
6.37724e-07
5.75436e-07
5.19851e-07
4.70195e-07
4.25784e-07
3.8602e-07
3.50374e-07
3.18383e-07
2.89638e-07
2.63779e-07
2.40488e-07
2.19485e-07
2.00523e-07
1.83383e-07
1.67871e-07
1.35376e-06
1.21148e-06
1.0854e-06
9.73574e-07
8.74299e-07
7.8608e-07
7.07606e-07
6.37728e-07
5.75439e-07
5.19855e-07
4.70198e-07
4.25787e-07
3.86023e-07
3.50377e-07
3.18385e-07
2.8964e-07
2.63781e-07
2.4049e-07
2.19487e-07
2.00525e-07
1.83384e-07
1.67872e-07
1.32881e-06
1.18829e-06
1.06384e-06
9.53531e-07
8.55659e-07
7.68741e-07
6.91474e-07
6.22716e-07
5.61467e-07
5.06848e-07
4.58088e-07
4.14511e-07
3.75521e-07
3.40595e-07
3.09273e-07
2.81151e-07
2.55871e-07
2.33119e-07
2.12618e-07
1.94122e-07
1.77417e-07
1.6231e-07
1.30541e-06
1.16662e-06
1.04377e-06
9.34929e-07
8.38413e-07
7.52746e-07
6.76633e-07
6.08941e-07
5.48677e-07
4.94969e-07
4.47052e-07
4.04255e-07
3.65987e-07
3.3173e-07
3.01029e-07
2.73482e-07
2.48736e-07
2.26479e-07
2.06438e-07
1.8837e-07
1.72061e-07
1.57323e-07
1.28375e-06
1.14664e-06
1.02532e-06
9.17885e-07
8.22658e-07
7.38172e-07
6.63146e-07
5.96454e-07
5.3711e-07
4.8425e-07
4.37114e-07
3.95037e-07
3.57435e-07
3.23793e-07
2.93659e-07
2.66637e-07
2.42377e-07
2.2057e-07
2.00945e-07
1.83262e-07
1.67311e-07
1.52905e-07
1.26374e-06
1.12825e-06
1.00841e-06
9.02317e-07
8.08318e-07
7.24955e-07
6.50955e-07
5.85202e-07
5.26718e-07
4.74646e-07
4.28235e-07
3.86823e-07
3.49831e-07
3.16751e-07
2.87136e-07
2.60591e-07
2.3677e-07
2.15369e-07
1.96118e-07
1.78782e-07
1.63151e-07
1.4904e-07
1.2461e-06
1.11206e-06
9.93547e-07
8.88662e-07
7.95759e-07
7.13395e-07
6.40306e-07
5.75386e-07
5.17663e-07
4.66288e-07
4.20515e-07
3.79688e-07
3.43234e-07
3.10648e-07
2.81486e-07
2.55358e-07
2.31922e-07
2.10875e-07
1.91952e-07
1.74917e-07
1.59564e-07
1.4571e-07
1.23036e-06
1.09768e-06
9.80384e-07
8.76604e-07
7.84704e-07
7.03251e-07
6.30989e-07
5.66822e-07
5.09785e-07
4.59035e-07
4.13832e-07
3.73527e-07
3.3755e-07
3.054e-07
2.76638e-07
2.50877e-07
2.27778e-07
2.07041e-07
1.88401e-07
1.71629e-07
1.56517e-07
1.42886e-07
1.2167e-06
1.08522e-06
9.69017e-07
8.6622e-07
7.75208e-07
6.94558e-07
6.23025e-07
5.59518e-07
5.03081e-07
4.52877e-07
4.0817e-07
3.68317e-07
3.32752e-07
3.00979e-07
2.72561e-07
2.47115e-07
2.24304e-07
2.03831e-07
1.85435e-07
1.68884e-07
1.53977e-07
1.40534e-07
1.20508e-06
1.07466e-06
9.59404e-07
8.57461e-07
7.67219e-07
6.87264e-07
6.16358e-07
5.53418e-07
4.97495e-07
4.47756e-07
4.03472e-07
3.64003e-07
3.28788e-07
2.97332e-07
2.69205e-07
2.44023e-07
2.21454e-07
2.01202e-07
1.83008e-07
1.66643e-07
1.51906e-07
1.38619e-07
1.19545e-06
1.06593e-06
9.51478e-07
8.50258e-07
7.60665e-07
6.81295e-07
6.10915e-07
5.4845e-07
4.92955e-07
4.43604e-07
3.99671e-07
3.6052e-07
3.25592e-07
2.94399e-07
2.66509e-07
2.41546e-07
2.19173e-07
1.99102e-07
1.81072e-07
1.64858e-07
1.50258e-07
1.37098e-07
1.18772e-06
1.05894e-06
9.45144e-07
8.44516e-07
7.55454e-07
6.76559e-07
6.06607e-07
5.44527e-07
4.89379e-07
4.4034e-07
3.96689e-07
3.57792e-07
3.23096e-07
2.92112e-07
2.64412e-07
2.3962e-07
2.17405e-07
1.97475e-07
1.79576e-07
1.6348e-07
1.48988e-07
1.35926e-07
1.18188e-06
1.05366e-06
9.40376e-07
8.40198e-07
7.51539e-07
6.73006e-07
6.03379e-07
5.4159e-07
4.86704e-07
4.37902e-07
3.94463e-07
3.5576e-07
3.21237e-07
2.9041e-07
2.62852e-07
2.3819e-07
2.16092e-07
1.96269e-07
1.78467e-07
1.62459e-07
1.48049e-07
1.3506e-07
1.17729e-06
1.04954e-06
9.3667e-07
8.36863e-07
7.48535e-07
6.70296e-07
6.00931e-07
5.39377e-07
4.84701e-07
4.36085e-07
3.92815e-07
3.54262e-07
3.19875e-07
2.8917e-07
2.61722e-07
2.37159e-07
2.1515e-07
1.95408e-07
1.77678e-07
1.61737e-07
1.47387e-07
1.34453e-07
1.17455e-06
1.04707e-06
9.34445e-07
8.34855e-07
7.46719e-07
6.68653e-07
5.99443e-07
5.38027e-07
4.83475e-07
4.34971e-07
3.91801e-07
3.53338e-07
3.19032e-07
2.884e-07
2.61019e-07
2.36514e-07
2.14561e-07
1.94867e-07
1.77183e-07
1.61282e-07
1.46968e-07
1.34068e-07
1.17426e-06
1.0468e-06
9.34191e-07
8.34617e-07
7.46496e-07
6.68444e-07
5.99247e-07
5.37844e-07
4.83303e-07
4.34811e-07
3.91651e-07
3.53198e-07
3.18901e-07
2.88278e-07
2.60904e-07
2.36408e-07
2.1446e-07
1.94774e-07
1.77095e-07
1.61199e-07
1.46892e-07
1.33996e-07
1.17092e-06
1.17106e-06
1.17362e-06
1.17788e-06
1.18311e-06
1.18993e-06
1.19828e-06
1.20817e-06
1.21953e-06
1.23228e-06
1.24623e-06
1.26182e-06
1.27825e-06
1.29554e-06
1.3135e-06
1.24187e-06
1.21875e-06
1.19677e-06
1.17606e-06
1.15676e-06
1.13865e-06
1.1226e-06
1.10796e-06
1.09495e-06
1.08358e-06
1.07382e-06
1.06563e-06
1.05894e-06
1.05375e-06
1.04972e-06
1.03789e-06
1.03802e-06
1.04029e-06
1.04405e-06
1.04873e-06
1.05483e-06
1.06235e-06
1.0713e-06
1.08162e-06
1.09327e-06
1.10609e-06
1.12048e-06
1.13576e-06
1.15195e-06
1.16889e-06
1.10778e-06
1.08665e-06
1.0666e-06
1.04776e-06
1.03024e-06
1.01387e-06
9.99343e-07
9.8614e-07
9.74433e-07
9.64212e-07
9.55455e-07
9.48117e-07
9.42128e-07
9.37479e-07
9.33856e-07
9.20854e-07
9.20968e-07
9.22983e-07
9.26328e-07
9.30509e-07
9.35981e-07
9.42748e-07
9.50854e-07
9.60254e-07
9.70904e-07
9.82697e-07
9.9599e-07
1.0102e-06
1.02536e-06
1.04132e-06
9.89309e-07
9.69969e-07
9.51665e-07
9.34507e-07
9.18585e-07
9.0375e-07
8.90597e-07
8.78672e-07
8.68119e-07
8.58921e-07
8.51055e-07
8.4447e-07
8.39101e-07
8.34935e-07
8.31684e-07
8.17821e-07
8.17923e-07
8.19716e-07
8.22691e-07
8.26437e-07
8.31349e-07
8.37447e-07
8.44797e-07
8.5337e-07
8.63123e-07
8.73976e-07
8.86254e-07
8.99479e-07
9.13667e-07
9.28709e-07
8.84537e-07
8.66819e-07
8.50091e-07
8.34443e-07
8.19954e-07
8.06498e-07
7.94572e-07
7.83787e-07
7.74261e-07
7.65973e-07
7.58896e-07
7.52981e-07
7.48163e-07
7.44425e-07
7.41504e-07
7.27054e-07
7.27146e-07
7.28743e-07
7.31392e-07
7.34756e-07
7.39173e-07
7.44673e-07
7.5134e-07
7.59169e-07
7.68114e-07
7.7811e-07
7.89454e-07
8.01763e-07
8.15045e-07
8.29203e-07
7.91798e-07
7.75546e-07
7.60243e-07
7.45957e-07
7.32754e-07
7.20532e-07
7.09707e-07
6.99939e-07
6.91329e-07
6.83853e-07
6.77477e-07
6.72157e-07
6.67828e-07
6.64469e-07
6.61842e-07
6.47034e-07
6.47118e-07
6.48544e-07
6.50906e-07
6.5393e-07
6.57911e-07
6.62879e-07
6.68927e-07
6.76081e-07
6.84299e-07
6.93515e-07
7.03999e-07
7.15454e-07
7.27887e-07
7.41204e-07
7.09631e-07
6.94708e-07
6.80693e-07
6.67638e-07
6.55594e-07
6.44477e-07
6.34637e-07
6.25781e-07
6.1799e-07
6.11235e-07
6.05484e-07
6.00693e-07
5.96798e-07
5.93776e-07
5.91412e-07
5.76436e-07
5.76514e-07
5.77788e-07
5.79897e-07
5.8262e-07
5.86214e-07
5.9071e-07
5.96201e-07
6.02739e-07
6.10296e-07
6.18805e-07
6.28499e-07
6.39155e-07
6.50792e-07
6.63315e-07
6.36761e-07
6.23044e-07
6.10193e-07
5.9825e-07
5.87252e-07
5.77128e-07
5.68173e-07
5.60133e-07
5.53073e-07
5.46963e-07
5.41769e-07
5.37447e-07
5.33941e-07
5.31218e-07
5.29088e-07
5.14102e-07
5.14175e-07
5.15315e-07
5.17201e-07
5.19656e-07
5.22906e-07
5.26983e-07
5.31973e-07
5.37948e-07
5.44903e-07
5.52768e-07
5.61737e-07
5.71648e-07
5.82535e-07
5.94308e-07
5.72072e-07
5.59449e-07
5.47653e-07
5.36716e-07
5.26663e-07
5.17432e-07
5.09271e-07
5.01965e-07
4.95559e-07
4.90025e-07
4.85329e-07
4.81426e-07
4.78264e-07
4.75808e-07
4.73888e-07
4.59019e-07
4.59088e-07
4.6011e-07
4.61798e-07
4.64015e-07
4.66959e-07
4.70663e-07
4.75204e-07
4.80665e-07
4.87066e-07
4.94344e-07
5.02652e-07
5.11868e-07
5.22046e-07
5.3311e-07
5.14587e-07
5.02959e-07
4.92117e-07
4.82091e-07
4.72894e-07
4.64468e-07
4.57022e-07
4.50373e-07
4.44554e-07
4.39537e-07
4.35284e-07
4.31755e-07
4.289e-07
4.26682e-07
4.24949e-07
4.10304e-07
4.10368e-07
4.11287e-07
4.12799e-07
4.14803e-07
4.17473e-07
4.20844e-07
4.24986e-07
4.29978e-07
4.35868e-07
4.42609e-07
4.50311e-07
4.58882e-07
4.68391e-07
4.78784e-07
4.63447e-07
4.52729e-07
4.42753e-07
4.3355e-07
4.25127e-07
4.17429e-07
4.10627e-07
4.04569e-07
3.99277e-07
3.94722e-07
3.90867e-07
3.87672e-07
3.85091e-07
3.83085e-07
3.8152e-07
3.67182e-07
3.67243e-07
3.68069e-07
3.69427e-07
3.71239e-07
3.73663e-07
3.76737e-07
3.80521e-07
3.85089e-07
3.90506e-07
3.9675e-07
4.03901e-07
4.11876e-07
4.20753e-07
4.30506e-07
4.179e-07
4.08016e-07
3.98828e-07
3.9037e-07
3.82648e-07
3.75609e-07
3.69389e-07
3.63863e-07
3.59044e-07
3.54903e-07
3.51405e-07
3.48509e-07
3.46172e-07
3.44356e-07
3.42941e-07
3.28977e-07
3.29034e-07
3.29778e-07
3.30998e-07
3.3264e-07
3.34844e-07
3.37649e-07
3.41112e-07
3.45299e-07
3.5028e-07
3.56061e-07
3.62705e-07
3.70131e-07
3.78415e-07
3.87559e-07
3.77288e-07
3.68169e-07
3.597e-07
3.51919e-07
3.44831e-07
3.38389e-07
3.32696e-07
3.27649e-07
3.23255e-07
3.19487e-07
3.16307e-07
3.1368e-07
3.11562e-07
3.09916e-07
3.08635e-07
2.95097e-07
2.95149e-07
2.95821e-07
2.9692e-07
2.98408e-07
3.00413e-07
3.02976e-07
3.06151e-07
3.09994e-07
3.14576e-07
3.19925e-07
3.26099e-07
3.33019e-07
3.40752e-07
3.49316e-07
3.41034e-07
3.32617e-07
3.24808e-07
3.17642e-07
3.1113e-07
3.05226e-07
3.00011e-07
2.95396e-07
2.91386e-07
2.87952e-07
2.8506e-07
2.82673e-07
2.8075e-07
2.79257e-07
2.78097e-07
2.65023e-07
2.65071e-07
2.65677e-07
2.66668e-07
2.6802e-07
2.69845e-07
2.72189e-07
2.75102e-07
2.78637e-07
2.82856e-07
2.87802e-07
2.93536e-07
2.99991e-07
3.07211e-07
3.15226e-07
3.08632e-07
3.00858e-07
2.93655e-07
2.87052e-07
2.81062e-07
2.75647e-07
2.70864e-07
2.6664e-07
2.62976e-07
2.59843e-07
2.57208e-07
2.55037e-07
2.53291e-07
2.51935e-07
2.50883e-07
2.38301e-07
2.38345e-07
2.38892e-07
2.39786e-07
2.41017e-07
2.4268e-07
2.44825e-07
2.475e-07
2.50756e-07
2.54647e-07
2.59218e-07
2.64541e-07
2.70562e-07
2.77308e-07
2.84807e-07
2.79642e-07
2.72456e-07
2.65809e-07
2.59722e-07
2.54206e-07
2.49233e-07
2.44843e-07
2.40973e-07
2.37621e-07
2.34759e-07
2.32357e-07
2.30381e-07
2.28792e-07
2.27559e-07
2.26604e-07
2.14532e-07
2.14573e-07
2.15067e-07
2.15875e-07
2.16996e-07
2.18514e-07
2.20477e-07
2.22937e-07
2.25938e-07
2.29531e-07
2.3376e-07
2.38696e-07
2.44311e-07
2.50616e-07
2.57633e-07
2.53674e-07
2.47025e-07
2.40887e-07